 vasp.6.4.2 20Jul23 (build Nov 27 2023 21:25:52) complex                        
  
 executed on             LinuxIFC date 2024.12.10  16:54:29
 running   64 mpi-ranks, on    1 nodes
 distrk:  each k-point on   64 cores,    1 groups
 distr:  one band on NCORE=   1 cores,   64 groups


--------------------------------------------------------------------------------------------------------


 INCAR:
   ALGO = All
   EDIFF = 0.00135
   ENCUT = 520
   HFSCREEN = 0.2
   IBRION = 2
   ICHARG = 1
   ISIF = 3
   ISMEAR = 0
   ISPIN = 2
   LHFCALC = True
   LMAXMIX = 4
   LORBIT = 11
   LREAL = Auto
   LWAVE = False
   MAGMOM = 5*0.6 6*3.0 16*0.6
   NELM = 100
   NSW = 99
   PREC = Accurate
   PRECFOCK = Fast
   SIGMA = 0.05

 POTCAR:    PAW_PBE Na_pv 19Sep2006               
 POTCAR:    PAW_PBE Li_sv 10Sep2004               
 POTCAR:    PAW_PBE Mn_pv 02Aug2007               
 POTCAR:    PAW_PBE O 08Apr2002                   
 -----------------------------------------------------------------------------
|                                                                             |
|           W    W    AA    RRRRR   N    N  II  N    N   GGGG   !!!           |
|           W    W   A  A   R    R  NN   N  II  NN   N  G    G  !!!           |
|           W    W  A    A  R    R  N N  N  II  N N  N  G       !!!           |
|           W WW W  AAAAAA  RRRRR   N  N N  II  N  N N  G  GGG   !            |
|           WW  WW  A    A  R   R   N   NN  II  N   NN  G    G                |
|           W    W  A    A  R    R  N    N  II  N    N   GGGG   !!!           |
|                                                                             |
|     For optimal performance we recommend to set                             |
|       NCORE = 2 up to number-of-cores-per-socket                            |
|     NCORE specifies how many cores store one orbital (NPAR=cpu/NCORE).      |
|     This setting can greatly improve the performance of VASP for DFT.       |
|     The default, NCORE=1 might be grossly inefficient on modern             |
|     multi-core architectures or massively parallel machines. Do your        |
|     own testing! More info at https://www.vasp.at/wiki/index.php/NCORE      |
|     Unfortunately you need to use the default for GW and RPA                |
|     calculations (for HF NCORE is supported but not extensively tested      |
|     yet).                                                                   |
|                                                                             |
 -----------------------------------------------------------------------------

 POTCAR:    PAW_PBE Na_pv 19Sep2006               
   VRHFIN =Na: p6s1                                                                                 
   LEXCH  = PE                                                                                      
   EATOM  =   766.0439 eV,   56.3026 Ry                                                             
                                                                                                    
   TITEL  = PAW_PBE Na_pv 19Sep2006                                                                 
   LULTRA =        F    use ultrasoft PP ?                                                          
   IUNSCR =        1    unscreen: 0-lin 1-nonlin 2-no                                               
   RPACOR =    1.800    partial core radius                                                         
   POMASS =   22.990; ZVAL   =    7.000    mass and valenz                                          
   RCORE  =    2.200    outmost cutoff radius                                                       
   RWIGS  =    2.200; RWIGS  =    1.164    wigner-seitz radius (au A)                               
   ENMAX  =  259.561; ENMIN  =  194.671 eV                                                          
   ICORE  =        2    local potential                                                             
   LCOR   =        T    correct aug charges                                                         
   LPAW   =        T    paw PP                                                                      
   EAUG   =  368.056                                                                                
   DEXC   =    0.000                                                                                
   RMAX   =    2.245    core radius for proj-oper                                                   
   RAUG   =    1.300    factor for augmentation sphere                                              
   RDEP   =    2.259    radius for radial grids                                                     
   RDEPT  =    1.738    core radius for aug-charge                                                  
                                                                                                    
   Atomic configuration                                                                             
    5 entries                                                                                       
     n  l   j            E        occ.                                                              
     1  0  0.50     -1033.6933   2.0000                                                             
     2  0  0.50       -56.7526   2.0000                                                             
     2  1  1.50       -28.6721   6.0000                                                             
     3  0  0.50        -2.7440   1.0000                                                             
     3  2  1.50        -1.3606   0.0000                                                             
   Description                                                                                      
     l       E           TYP  RCUT    TYP  RCUT                                                     
     1    -28.6720912     23  2.000                                                                 
     1      6.8029130     23  2.000                                                                 
     0     -2.7439560     23  2.200                                                                 
     0     34.0145650     23  2.200                                                                 
     2     -1.3605826     23  2.200                                                                 
  local pseudopotential read in
  partial core-charges read in
  partial kinetic energy density read in
  atomic valenz-charges read in
  non local Contribution for L=           1  read in
    real space projection operators read in
  non local Contribution for L=           1  read in
    real space projection operators read in
  non local Contribution for L=           0  read in
    real space projection operators read in
  non local Contribution for L=           0  read in
    real space projection operators read in
    PAW grid and wavefunctions read in
 
   number of l-projection  operators is LMAX  =           4
   number of lm-projection operators is LMMAX =           8
 
 POTCAR:    PAW_PBE Li_sv 10Sep2004               
   VRHFIN =Li: 1s2s2p                                                                               
   LEXCH  = PE                                                                                      
   EATOM  =   202.7858 eV,   14.9043 Ry                                                             
                                                                                                    
   TITEL  = PAW_PBE Li_sv 10Sep2004                                                                 
   LULTRA =        F    use ultrasoft PP ?                                                          
   IUNSCR =        0    unscreen: 0-lin 1-nonlin 2-no                                               
   RPACOR =    0.000    partial core radius                                                         
   POMASS =    7.010; ZVAL   =    3.000    mass and valenz                                          
   RCORE  =    1.700    outmost cutoff radius                                                       
   RWIGS  =    2.050; RWIGS  =    1.085    wigner-seitz radius (au A)                               
   ENMAX  =  499.034; ENMIN  =  374.276 eV                                                          
   ICORE  =        2    local potential                                                             
   LCOR   =        T    correct aug charges                                                         
   LPAW   =        T    paw PP                                                                      
   EAUG   =  628.945                                                                                
   RMAX   =    1.732    core radius for proj-oper                                                   
   RAUG   =    1.300    factor for augmentation sphere                                              
   RDEP   =    1.728    radius for radial grids                                                     
   RDEPT  =    1.329    core radius for aug-charge                                                  
                                                                                                    
   Atomic configuration                                                                             
    4 entries                                                                                       
     n  l   j            E        occ.                                                              
     1  0  0.50       -51.8549   2.0000                                                             
     2  0  0.50        -2.8742   1.0000                                                             
     2  1  0.50        -1.3606   0.0000                                                             
     3  2  1.50        -1.3606   0.0000                                                             
   Description                                                                                      
     l       E           TYP  RCUT    TYP  RCUT                                                     
     0    -51.8548813     23  1.400                                                                 
     0     -2.8742052     23  1.700                                                                 
     1     -1.3605826     23  1.400                                                                 
     2     -1.3605826     23  1.400                                                                 
  local pseudopotential read in
  atomic valenz-charges read in
  non local Contribution for L=           0  read in
    real space projection operators read in
  non local Contribution for L=           0  read in
    real space projection operators read in
  non local Contribution for L=           1  read in
    real space projection operators read in
    PAW grid and wavefunctions read in
 
   number of l-projection  operators is LMAX  =           3
   number of lm-projection operators is LMMAX =           5
 
 POTCAR:    PAW_PBE Mn_pv 02Aug2007               
   VRHFIN =Mn: 3p4s3d                                                                               
   LEXCH  = PE                                                                                      
   EATOM  =  2025.2664 eV,  148.8529 Ry                                                             
                                                                                                    
   TITEL  = PAW_PBE Mn_pv 02Aug2007                                                                 
   LULTRA =        F    use ultrasoft PP ?                                                          
   IUNSCR =        1    unscreen: 0-lin 1-nonlin 2-no                                               
   RPACOR =    2.080    partial core radius                                                         
   POMASS =   54.938; ZVAL   =   13.000    mass and valenz                                          
   RCORE  =    2.300    outmost cutoff radius                                                       
   RWIGS  =    2.500; RWIGS  =    1.323    wigner-seitz radius (au A)                               
   ENMAX  =  269.864; ENMIN  =  202.398 eV                                                          
   ICORE  =        3    local potential                                                             
   LCOR   =        T    correct aug charges                                                         
   LPAW   =        T    paw PP                                                                      
   EAUG   =  569.085                                                                                
   DEXC   =    0.000                                                                                
   RMAX   =    2.343    core radius for proj-oper                                                   
   RAUG   =    1.300    factor for augmentation sphere                                              
   RDEP   =    2.338    radius for radial grids                                                     
   RDEPT  =    1.798    core radius for aug-charge                                                  
                                                                                                    
   Atomic configuration                                                                             
    8 entries                                                                                       
     n  l   j            E        occ.                                                              
     1  0  0.50     -6424.8287   2.0000                                                             
     2  0  0.50      -739.1154   2.0000                                                             
     2  1  1.50      -625.3949   6.0000                                                             
     3  0  0.50       -81.6100   2.0000                                                             
     3  1  1.50       -50.4667   6.0000                                                             
     3  2  2.50        -3.3745   6.0000                                                             
     4  0  0.50        -4.1331   1.0000                                                             
     4  3  2.50        -1.3606   0.0000                                                             
   Description                                                                                      
     l       E           TYP  RCUT    TYP  RCUT                                                     
     1    -50.4666628     23  2.000                                                                 
     1     -1.3605826     23  2.000                                                                 
     2     -3.3744729     23  2.300                                                                 
     2     -4.7350555     23  2.300                                                                 
     0     -4.1331431     23  2.300                                                                 
     0      7.6656591     23  2.300                                                                 
     3      9.5240782     23  2.300                                                                 
  local pseudopotential read in
  partial core-charges read in
  partial kinetic energy density read in
  atomic valenz-charges read in
  non local Contribution for L=           1  read in
    real space projection operators read in
  non local Contribution for L=           1  read in
    real space projection operators read in
  non local Contribution for L=           2  read in
    real space projection operators read in
  non local Contribution for L=           2  read in
    real space projection operators read in
  non local Contribution for L=           0  read in
    real space projection operators read in
  non local Contribution for L=           0  read in
    real space projection operators read in
    PAW grid and wavefunctions read in
 
   number of l-projection  operators is LMAX  =           6
   number of lm-projection operators is LMMAX =          18
 
 POTCAR:    PAW_PBE O 08Apr2002                   
   VRHFIN =O: s2p4                                                                                  
   LEXCH  = PE                                                                                      
   EATOM  =   432.3788 eV,   31.7789 Ry                                                             
                                                                                                    
   TITEL  = PAW_PBE O 08Apr2002                                                                     
   LULTRA =        F    use ultrasoft PP ?                                                          
   IUNSCR =        1    unscreen: 0-lin 1-nonlin 2-no                                               
   RPACOR =    1.200    partial core radius                                                         
   POMASS =   16.000; ZVAL   =    6.000    mass and valenz                                          
   RCORE  =    1.520    outmost cutoff radius                                                       
   RWIGS  =    1.550; RWIGS  =    0.820    wigner-seitz radius (au A)                               
   ENMAX  =  400.000; ENMIN  =  300.000 eV                                                          
   ICORE  =        2    local potential                                                             
   LCOR   =        T    correct aug charges                                                         
   LPAW   =        T    paw PP                                                                      
   EAUG   =  605.392                                                                                
   DEXC   =    0.000                                                                                
   RMAX   =    1.553    core radius for proj-oper                                                   
   RAUG   =    1.300    factor for augmentation sphere                                              
   RDEP   =    1.550    radius for radial grids                                                     
   RDEPT  =    1.329    core radius for aug-charge                                                  
                                                                                                    
   Atomic configuration                                                                             
    4 entries                                                                                       
     n  l   j            E        occ.                                                              
     1  0  0.50      -514.6923   2.0000                                                             
     2  0  0.50       -23.9615   2.0000                                                             
     2  1  0.50        -9.0305   4.0000                                                             
     3  2  1.50        -9.5241   0.0000                                                             
   Description                                                                                      
     l       E           TYP  RCUT    TYP  RCUT                                                     
     0    -23.9615318     23  1.200                                                                 
     0     -9.5240782     23  1.200                                                                 
     1     -9.0304911     23  1.520                                                                 
     1      8.1634956     23  1.520                                                                 
     2     -9.5240782      7  1.500                                                                 
  local pseudopotential read in
  partial core-charges read in
  partial kinetic energy density read in
  kinetic energy density of atom read in
  atomic valenz-charges read in
  non local Contribution for L=           0  read in
    real space projection operators read in
  non local Contribution for L=           0  read in
    real space projection operators read in
  non local Contribution for L=           1  read in
    real space projection operators read in
  non local Contribution for L=           1  read in
    real space projection operators read in
    PAW grid and wavefunctions read in
 
   number of l-projection  operators is LMAX  =           4
   number of lm-projection operators is LMMAX =           8
 
 Optimization of the real space projectors (new method)

 maximal supplied QI-value         = 17.01
 optimisation between [QCUT,QGAM] = [ 11.57, 23.30] = [ 37.45,152.03] Ry 
 Optimized for a Real-space Cutoff    1.45 Angstroem

   l    n(q)    QCUT    max X(q) W(low)/X(q) W(high)/X(q)  e(spline) 
   1     10    11.565     4.940    0.87E-04    0.13E-03    0.13E-06
   1     10    11.565     6.253    0.13E-03    0.19E-03    0.20E-06
   0     10    11.565    37.438    0.53E-04    0.73E-05    0.79E-07
   0     10    11.565     9.606    0.27E-04    0.60E-05    0.56E-07
 Optimization of the real space projectors (new method)

 maximal supplied QI-value         = 22.11
 optimisation between [QCUT,QGAM] = [ 11.50, 23.22] = [ 37.02,150.92] Ry 
 Optimized for a Real-space Cutoff    1.08 Angstroem

   l    n(q)    QCUT    max X(q) W(low)/X(q) W(high)/X(q)  e(spline) 
   0      7    11.497    10.506    0.36E-04    0.62E-04    0.14E-07
   0      7    11.497     8.367    0.65E-04    0.14E-03    0.28E-07
   1      7    11.497     8.983    0.21E-03    0.43E-03    0.90E-07
 Optimization of the real space projectors (new method)

 maximal supplied QI-value         = 16.25
 optimisation between [QCUT,QGAM] = [ 11.54, 23.24] = [ 37.28,151.24] Ry 
 Optimized for a Real-space Cutoff    1.45 Angstroem

   l    n(q)    QCUT    max X(q) W(low)/X(q) W(high)/X(q)  e(spline) 
   1     10    11.539     3.658    0.56E-04    0.12E-03    0.13E-06
   1     10    11.539     5.612    0.11E-03    0.23E-03    0.24E-06
   2      9    11.539    55.373    0.45E-04    0.92E-04    0.22E-06
   2      9    11.539    50.863    0.47E-04    0.95E-04    0.22E-06
   0     10    11.539    79.536    0.46E-04    0.27E-04    0.11E-06
   0     10    11.539    38.668    0.38E-04    0.25E-04    0.10E-06
 Optimization of the real space projectors (new method)

 maximal supplied QI-value         = 24.76
 optimisation between [QCUT,QGAM] = [ 11.64, 23.27] = [ 37.91,151.63] Ry 
 Optimized for a Real-space Cutoff    1.14 Angstroem

   l    n(q)    QCUT    max X(q) W(low)/X(q) W(high)/X(q)  e(spline) 
   0      8    11.635    20.381    0.10E-03    0.33E-03    0.24E-06
   0      8    11.635    15.268    0.11E-03    0.35E-03    0.26E-06
   1      7    11.635     5.964    0.24E-03    0.31E-03    0.30E-06
   1      7    11.635     5.382    0.22E-03    0.25E-03    0.26E-06
  PAW_PBE Na_pv 19Sep2006               :
 energy of atom  1       EATOM= -766.0439
 kinetic energy error for atom=    0.0019 (will be added to EATOM!!)
  PAW_PBE Li_sv 10Sep2004               :
 energy of atom  2       EATOM= -202.7858
 kinetic energy error for atom=    0.0130 (will be added to EATOM!!)
  PAW_PBE Mn_pv 02Aug2007               :
 energy of atom  3       EATOM=-2025.2664
 kinetic energy error for atom=    0.0058 (will be added to EATOM!!)
  PAW_PBE O 08Apr2002                   :
 energy of atom  4       EATOM= -432.3788
 kinetic energy error for atom=    0.0208 (will be added to EATOM!!)
 
 
 POSCAR: Na6 Li2 Mn6 O16
  positions in direct lattice
  velocities in cartesian coordinates
 exchange correlation table for  LEXCH =        8
   RHO(1)=    0.500       N(1)  =     2000
   RHO(2)=  100.500       N(2)  =     4000
 


--------------------------------------------------------------------------------------------------------


 ion  position               nearest neighbor table
   1  0.494  0.510  0.248-  16 2.37  11 2.82   8 2.85
   2  0.141  0.287  0.750-
   3  0.814  0.151  0.250-
   4  0.500  0.982  0.543-  14 1.87  12 1.88  13 1.88
   5  0.002  0.022  0.006-  21 1.99  20 2.02  23 2.03  26 2.03  27 2.08  24 2.10   9 2.84
   6  0.999  0.988  0.497-  14 1.90  12 1.91  17 1.92  19 1.93  15 1.97  16 1.99   7 2.92   8 2.92
                             8 2.93   7 2.93
   7  0.001  0.488  0.499-  14 1.90  13 1.90  17 1.92  18 1.94  15 1.97  16 1.99   8 2.90   6 2.92
                             8 2.92   6 2.93
   8  0.499  0.489  0.499-  13 1.89  12 1.90  15 1.95  19 1.95  18 1.95  16 2.00   1 2.85   7 2.90
                             6 2.92   7 2.92   6 2.93
   9  0.004  0.510  0.001-  26 1.90  21 1.91  27 1.91  20 1.92  25 1.96  22 1.99   5 2.84  11 2.89
                            10 2.92  10 2.92  11 2.94
  10  0.502  0.014  0.995-  21 1.91  26 1.91  24 1.92  23 1.93  25 1.98  22 2.00   9 2.92  11 2.92
                             9 2.92  11 2.93
  11  0.503  0.515  0.999-  24 1.90  27 1.90  20 1.94  23 1.94  25 1.94  22 2.00   1 2.82   9 2.89
                            10 2.92  10 2.93   9 2.94
  12  0.316  0.158  0.583-   4 1.88   8 1.90   6 1.91
  13  0.313  0.620  0.587-   4 1.88   8 1.89   7 1.90
  14  0.855  0.162  0.585-   4 1.87   7 1.90   6 1.90
  15  0.826  0.649  0.586-   8 1.95   6 1.97   7 1.97
  16  0.172  0.329  0.404-   7 1.99   6 1.99   8 2.00   1 2.37
  17  0.147  0.814  0.407-   6 1.92   7 1.92
  18  0.691  0.363  0.402-   7 1.94   8 1.95
  19  0.683  0.817  0.405-   6 1.93   8 1.95
  20  0.176  0.363  0.093-   9 1.92  11 1.94   5 2.02
  21  0.170  0.835  0.081-   9 1.91  10 1.91   5 1.99
  22  0.660  0.336  0.092-   9 1.99  11 2.00  10 2.00
  23  0.640  0.833  0.089-  10 1.93  11 1.94   5 2.03
  24  0.364  0.205  0.910-  11 1.90  10 1.92   5 2.10
  25  0.341  0.680  0.909-  11 1.94   9 1.96  10 1.98
  26  0.837  0.201  0.912-   9 1.90  10 1.91   5 2.03
  27  0.837  0.671  0.917-  11 1.90   9 1.91   5 2.08
 
  LATTYP: Found a triclinic cell.
 ALAT       =    10.0961149039
 B/A-ratio  =     0.5770940166
 C/A-ratio  =     1.5325604749
 COS(alpha) =     0.0120265449
 COS(beta)  =     0.3524902602
 COS(gamma) =     0.8647609972
  
  Lattice vectors:
  
 A1 = (   8.7502018414,   5.0336129766,   0.1680603723)
 A2 = (   2.9083326247,   5.0483537561,   0.0524411985)
 A3 = (   8.9996052454,  -5.0894440154,  11.5115379204)


Analysis of symmetry for initial positions (statically):
=====================================================================
 Subroutine PRICEL returns:
 Original cell was already a primitive cell.
 

 Routine SETGRP: Setting up the symmetry group for a 
 triclinic supercell.


 Subroutine GETGRP returns: Found  1 space group operations
 (whereof  1 operations were pure point group operations)
 out of a pool of  2 trial point group operations.


The static configuration has the point symmetry C_1 .


Analysis of symmetry for dynamics (positions and initial velocities):
=====================================================================
 Subroutine PRICEL returns:
 Original cell was already a primitive cell.
 

 Routine SETGRP: Setting up the symmetry group for a 
 triclinic supercell.


 Subroutine GETGRP returns: Found  1 space group operations
 (whereof  1 operations were pure point group operations)
 out of a pool of  2 trial point group operations.


The dynamic configuration has the point symmetry C_1 .


Analysis of structural, dynamic, and magnetic symmetry:
=====================================================================
 Subroutine PRICEL returns:
 Original cell was already a primitive cell.
 

 Routine SETGRP: Setting up the symmetry group for a 
 triclinic supercell.


 Subroutine GETGRP returns: Found  1 space group operations
 (whereof  1 operations were pure point group operations)
 out of a pool of  2 trial point group operations.


The overall configuration has the point symmetry C_1 .


 Subroutine INISYM returns: Found  1 space group operations
 (whereof  1 operations are pure point group operations),
 and found     1 'primitive' translations


----------------------------------------------------------------------------------------

                                     Primitive cell                                     

  volume of cell :     334.5776

  direct lattice vectors                    reciprocal lattice vectors
    -2.908332625 -5.048353756 -0.052441198    -0.171493839 -0.099321775  0.003290980
    -2.933536592  5.063094535 -0.063177975    -0.170998554  0.098475266  0.003483795
    -0.224199437  0.011608700-11.332740771     0.001746858 -0.000089380 -0.088274558

  length of vectors
     5.826407502  5.851884711 11.334964205     0.198206414  0.197357596  0.088291886

  position of ions in fractional coordinates (direct lattice)
     0.494413802  0.509522205  0.247669889
     0.141464616  0.287487876  0.750429922
     0.814481244  0.151389554  0.249806596
     0.500310400  0.981779488  0.542950167
     0.001644787  0.022408656  0.006261592
     0.998847911  0.988181663  0.496590774
     0.000630638  0.487502212  0.498566865
     0.499282809  0.488531008  0.499360505
     0.004295904  0.509835753  0.000920198
     0.501936416  0.013654457  0.994947303
     0.503201696  0.514936684  0.999189580
     0.316144702  0.158351508  0.582943898
     0.312862060  0.619925796  0.586885274
     0.855087360  0.161883725  0.585294171
     0.826037777  0.648649534  0.585910438
     0.172350286  0.328860629  0.404120191
     0.146817194  0.814064121  0.407284319
     0.691000869  0.362940770  0.402289671
     0.683427969  0.816825802  0.404837706
     0.175675662  0.363367639  0.093257819
     0.170035298  0.834703113  0.080664065
     0.660363685  0.335506572  0.091997615
     0.639878721  0.832985872  0.089344582
     0.364116481  0.204650801  0.910441859
     0.340960413  0.680262751  0.909035788
     0.837482411  0.200658325  0.911929328
     0.837248887  0.671133486  0.917069885

  ion indices of the primitive-cell ions
   primitive index   ion index
                 1           1
                 2           2
                 3           3
                 4           4
                 5           5
                 6           6
                 7           7
                 8           8
                 9           9
                10          10
                11          11
                12          12
                13          13
                14          14
                15          15
                16          16
                17          17
                18          18
                19          19
                20          20
                21          21
                22          22
                23          23
                24          24
                25          25
                26          26
                27          27

----------------------------------------------------------------------------------------

 
 
 KPOINTS: pymatgen with grid density = 1046 / numb

Automatic generation of k-mesh.
 Grid dimensions read from file:
 generate k-points for:    4    4    2

 Generating k-lattice:

  Cartesian coordinates                     Fractional coordinates (reciprocal lattice)
    -0.042873460 -0.024830444  0.000822745     0.250000000 -0.000000000 -0.000000000
    -0.042749639  0.024618817  0.000870949    -0.000000000  0.250000000 -0.000000000
     0.000873429 -0.000044690 -0.044137279    -0.000000000 -0.000000000  0.500000000

  Length of vectors
     0.049551603  0.049339399  0.044145943

  Shift w.r.t. Gamma in fractional coordinates (k-lattice)
     0.000000000  0.000000000  0.000000000

 
 Subroutine IBZKPT returns following result:
 ===========================================
 
 Found     20 irreducible k-points:
 
 Following reciprocal coordinates:
            Coordinates               Weight
  0.000000  0.000000  0.000000      1.000000
  0.250000  0.000000 -0.000000      2.000000
  0.500000  0.000000 -0.000000      1.000000
 -0.000000  0.250000 -0.000000      2.000000
  0.250000  0.250000 -0.000000      2.000000
  0.500000  0.250000  0.000000      2.000000
 -0.250000  0.250000 -0.000000      2.000000
 -0.000000  0.500000  0.000000      1.000000
  0.250000  0.500000  0.000000      2.000000
  0.500000  0.500000  0.000000      1.000000
  0.000000  0.000000  0.500000      1.000000
  0.250000  0.000000  0.500000      2.000000
  0.500000  0.000000  0.500000      1.000000
 -0.000000  0.250000  0.500000      2.000000
  0.250000  0.250000  0.500000      2.000000
  0.500000  0.250000  0.500000      2.000000
 -0.250000  0.250000  0.500000      2.000000
 -0.000000  0.500000  0.500000      1.000000
  0.250000  0.500000  0.500000      2.000000
  0.500000  0.500000  0.500000      1.000000
 
 Following cartesian coordinates:
            Coordinates               Weight
  0.000000  0.000000  0.000000      1.000000
 -0.042873 -0.024830  0.000823      2.000000
 -0.085747 -0.049661  0.001645      1.000000
 -0.042750  0.024619  0.000871      2.000000
 -0.085623 -0.000212  0.001694      2.000000
 -0.128497 -0.025042  0.002516      2.000000
  0.000124  0.049449  0.000048      2.000000
 -0.085499  0.049238  0.001742      1.000000
 -0.128373  0.024407  0.002565      2.000000
 -0.171246 -0.000423  0.003387      1.000000
  0.000873 -0.000045 -0.044137      1.000000
 -0.042000 -0.024875 -0.043315      2.000000
 -0.084873 -0.049706 -0.042492      1.000000
 -0.041876  0.024574 -0.043266      2.000000
 -0.084750 -0.000256 -0.042444      2.000000
 -0.127623 -0.025087 -0.041621      2.000000
  0.000997  0.049405 -0.044089      2.000000
 -0.084626  0.049193 -0.042395      1.000000
 -0.127499  0.024362 -0.041573      2.000000
 -0.170373 -0.000468 -0.040750      1.000000
 
 
 Subroutine IBZKPT_HF returns following result:
 ==============================================
 
 Found     32 k-points in 1st BZ
 the following     32 k-points will be used (e.g. in the exchange kernel)
 Following reciprocal coordinates:   # in IRBZ
  0.000000  0.000000  0.000000    0.03125000   1 t-inv F
  0.250000  0.000000 -0.000000    0.03125000   2 t-inv F
  0.500000  0.000000 -0.000000    0.03125000   3 t-inv F
 -0.000000  0.250000 -0.000000    0.03125000   4 t-inv F
  0.250000  0.250000 -0.000000    0.03125000   5 t-inv F
  0.500000  0.250000  0.000000    0.03125000   6 t-inv F
 -0.250000  0.250000 -0.000000    0.03125000   7 t-inv F
 -0.000000  0.500000  0.000000    0.03125000   8 t-inv F
  0.250000  0.500000  0.000000    0.03125000   9 t-inv F
  0.500000  0.500000  0.000000    0.03125000  10 t-inv F
  0.000000  0.000000  0.500000    0.03125000  11 t-inv F
  0.250000  0.000000  0.500000    0.03125000  12 t-inv F
  0.500000  0.000000  0.500000    0.03125000  13 t-inv F
 -0.000000  0.250000  0.500000    0.03125000  14 t-inv F
  0.250000  0.250000  0.500000    0.03125000  15 t-inv F
  0.500000  0.250000  0.500000    0.03125000  16 t-inv F
 -0.250000  0.250000  0.500000    0.03125000  17 t-inv F
 -0.000000  0.500000  0.500000    0.03125000  18 t-inv F
  0.250000  0.500000  0.500000    0.03125000  19 t-inv F
  0.500000  0.500000  0.500000    0.03125000  20 t-inv F
 -0.250000 -0.000000  0.000000    0.03125000   2 t-inv T
  0.000000 -0.250000  0.000000    0.03125000   4 t-inv T
 -0.250000 -0.250000  0.000000    0.03125000   5 t-inv T
 -0.500000 -0.250000 -0.000000    0.03125000   6 t-inv T
  0.250000 -0.250000  0.000000    0.03125000   7 t-inv T
 -0.250000 -0.500000 -0.000000    0.03125000   9 t-inv T
 -0.250000 -0.000000 -0.500000    0.03125000  12 t-inv T
  0.000000 -0.250000 -0.500000    0.03125000  14 t-inv T
 -0.250000 -0.250000 -0.500000    0.03125000  15 t-inv T
 -0.500000 -0.250000 -0.500000    0.03125000  16 t-inv T
  0.250000 -0.250000 -0.500000    0.03125000  17 t-inv T
 -0.250000 -0.500000 -0.500000    0.03125000  19 t-inv T


--------------------------------------------------------------------------------------------------------




 Dimension of arrays:
   k-points           NKPTS =     20   k-points in BZ     NKDIM =     32   number of bands    NBANDS=    192
   number of dos      NEDOS =    301   number of ions     NIONS =     27
   non local maximal  LDIM  =      6   non local SUM 2l+1 LMDIM =     18
   total plane-waves  NPLWV = 193536
   max r-space proj   IRMAX =   7372   max aug-charges    IRDMAX=  17749
   dimension x,y,z NGX =    48 NGY =   48 NGZ =   84
   dimension x,y,z NGXF=    96 NGYF=   96 NGZF=  168
   support grid    NGXF=    96 NGYF=   96 NGZF=  168
   ions per type =               3   2   6  16
   NGX,Y,Z   is equivalent  to a cutoff of  13.70, 13.64, 12.32 a.u.
   NGXF,Y,Z  is equivalent  to a cutoff of  27.39, 27.27, 24.64 a.u.

 SYSTEM =  unknown system                          
 POSCAR =  Na6 Li2 Mn6 O16                         

 Startparameter for this run:
   NWRITE =      2    write-flag & timer
   PREC   = accura    normal or accurate (medium, high low for compatibility)
   ISTART =      0    job   : 0-new  1-cont  2-samecut
   ICHARG =      1    charge: 1-file 2-atom 10-const
   ISPIN  =      2    spin polarized calculation?
   LNONCOLLINEAR =      F non collinear calculations
   LSORBIT =      F    spin-orbit coupling
   INIWAV =      1    electr: 0-lowe 1-rand  2-diag
   LASPH  =      F    aspherical Exc in radial PAW
 Electronic Relaxation 1
   ENCUT  =  520.0 eV  38.22 Ry    6.18 a.u.  10.83 10.88 21.08*2*pi/ulx,y,z
   ENINI  =  520.0     initial cutoff
   ENAUG  =  628.9 eV  augmentation charge cutoff
   NELM   =    100;   NELMIN=  2; NELMDL=  0     # of ELM steps 
   EDIFF  = 0.1E-02   stopping-criterion for ELM
   LREAL  =      T    real-space projection
   NLSPLINE    = F    spline interpolate recip. space projectors
   LCOMPAT=      F    compatible to vasp.4.4
   GGA_COMPAT  = T    GGA compatible to vasp.4.4-vasp.4.6
   LMAXPAW     = -100 max onsite density
   LMAXMIX     =    4 max onsite mixed and CHGCAR
   VOSKOWN=      0    Vosko Wilk Nusair interpolation
   ROPT   =   -0.00025  -0.00025  -0.00025  -0.00025
 Ionic relaxation
   EDIFFG = 0.1E-01   stopping-criterion for IOM
   NSW    =     99    number of steps for IOM
   NBLOCK =      1;   KBLOCK =     99    inner block; outer block 
   IBRION =      2    ionic relax: 0-MD 1-quasi-New 2-CG
   NFREE  =      1    steps in history (QN), initial steepest desc. (CG)
   ISIF   =      3    stress and relaxation
   IWAVPR =     11    prediction:  0-non 1-charg 2-wave 3-comb
   ISYM   =      3    0-nonsym 1-usesym 2-fastsym
   LCORR  =      T    Harris-Foulkes like correction to forces

   POTIM  = 0.5000    time-step for ionic-motion
   TEIN   =    0.0    initial temperature
   TEBEG  =    0.0;   TEEND  =   0.0 temperature during run
   SMASS  =  -3.00    Nose mass-parameter (am)
   estimated Nose-frequenzy (Omega)   =  0.10E-29 period in steps = 0.13E+47 mass=  -0.776E-27a.u.
   SCALEE = 1.0000    scale energy and forces
   NPACO  =    256;   APACO  = 10.0  distance and # of slots for P.C.
   PSTRESS=    0.0 pullay stress

  Mass of Ions in am
   POMASS =  22.99  7.01 54.94 16.00
  Ionic Valenz
   ZVAL   =   7.00  3.00 13.00  6.00
  Atomic Wigner-Seitz radii
   RWIGS  =  -1.00 -1.00 -1.00 -1.00
  virtual crystal weights 
   VCA    =   1.00  1.00  1.00  1.00
   NELECT =     201.0000    total number of electrons
   NUPDOWN=      -1.0000    fix difference up-down

 DOS related values:
   EMIN   =  10.00;   EMAX   =-10.00  energy-range for DOS
   EFERMI =   0.00;   METHOD = LEGACY      
   ISMEAR =     0;   SIGMA  =   0.05  broadening in eV -4-tet -1-fermi 0-gaus

 Electronic relaxation 2 (details)
   IALGO  =     58    algorithm
   LDIAG  =      T    sub-space diagonalisation (order eigenvalues)
   LSUBROT=      F    optimize rotation matrix (better conditioning)
   TURBO    =      0    0=normal 1=particle mesh
   IRESTART =      0    0=no restart 2=restart with 2 vectors
   NREBOOT  =      0    no. of reboots
   NMIN     =      0    reboot dimension
   EREF     =   0.00    reference energy to select bands
   IMIX   =      4    mixing-type and parameters
     AMIX     =   0.40;   BMIX     =  1.00
     AMIX_MAG =   1.60;   BMIX_MAG =  1.00
     AMIN     =   0.10
     WC   =   100.;   INIMIX=   1;  MIXPRE=   1;  MAXMIX= -45

 Intra band minimization:
   WEIMIN = 0.0010     energy-eigenvalue tresh-hold
   EBREAK =  0.18E-05  absolut break condition
   DEPER  =   0.30     relativ break condition  

   TIME   =   0.40     timestep for ELM

  volume/ion in A,a.u.               =      12.39        83.62
  Fermi-wavevector in a.u.,A,eV,Ry     =   1.381363  2.610398 25.962151  1.908164
  Thomas-Fermi vector in A             =   2.506154
 
 Write flags
   LWAVE        =      F    write WAVECAR
   LDOWNSAMPLE  =      F    k-point downsampling of WAVECAR
   LCHARG       =      T    write CHGCAR
   LVTOT        =      F    write LOCPOT, total local potential
   LVHAR        =      F    write LOCPOT, Hartree potential only
   LELF         =      F    write electronic localiz. function (ELF)
   LORBIT       =     11    0 simple, 1 ext, 2 COOP (PROOUT), +10 PAW based schemes


 Dipole corrections
   LMONO  =      F    monopole corrections only (constant potential shift)
   LDIPOL =      F    correct potential (dipole corrections)
   IDIPOL =      0    1-x, 2-y, 3-z, 4-all directions 
   EPSILON=  1.0000000 bulk dielectric constant

 Exchange correlation treatment:
   GGA     =    --    GGA type
   LEXCH   =     8    internal setting for exchange type
   LIBXC   =     F    Libxc                    
   VOSKOWN =     0    Vosko Wilk Nusair interpolation
   EXXOEP  =     0    0=HF, 1=EXX-LHF (local Hartree Fock) 2=EXX OEP
   LHFCALC =     T    Hartree Fock is set to
   LSYMGRAD=     F    symmetrize gradient (conserves proper symmetry)
   PRECFOCK=fast      Normal, Fast or Accurate (Low or Medium for compatibility)
   LRHFCALC=     F    long range Hartree Fock
   LRSCOR  =     F    long range correlation only (use DFT for short range part)
   LTHOMAS =     F    Thomas Fermi screening in HF
   LMODELHF=     F    short range full HF, long range fraction AEXX
   FOCKCORR=     1    mode to apply convergence corrections
   LFOCKACE=     T    use Adeptively-Compressed-Exchange operator
   ENCUT4O =  -1.0   cutoff for four orbital integrals eV
   LMAXFOCK=     4    L truncation for augmentation on plane wave grid
   LMAXFOCKAE=  -1    L truncation for all-electron charge restoration on plane wave grid
   NMAXFOCKAE=   1    number of basis functions for all-electron charge restoration
   LFOCKAEDFT=     F  apply the AE augmentation even for DFT
   NKREDX  =     1    reduce k-point grid by
   NKREDY  =     1    reduce k-point grid by
   NKREDZ  =     1    reduce k-point grid by
   SHIFTRED=     F    shift reduced grid of Gamma
   HFKIDENT=     F    idential grid for each k-point
   ODDONLY =     F    use only odd q-grid points
   EVENONLY=     F    use only even q-grid points
   HFALPHA =   -1.0000 decay constant for conv. correction
   MCALPHA =    0.0000 extent of test-charge in conv. correction in multipole expansion
   AEXX    =    0.2500 exact exchange contribution
   HFSCREEN=    0.2000 screening length (either q_TF or 0.3 A-1)
   HFSCREENC=   0.2000 screening length for correlation (either q_TF or 0.3 A-1)
   HFRCUT  =    0.0000 spherical cutoff for potential kernel
   ALDAX   =    0.7500 LDA exchange part
   AGGAX   =    0.7500 GGA exchange part
   ALDAC   =    1.0000 LDA correlation
   AGGAC   =    1.0000 GGA correlation
   ENCUTFOCK=  -1.0 apply spherical cutoff to Coloumb kernel
   NBANDSGWLOW=     1    first orbital included in HF term
   NBLOCK_FOCK=    64    blocking factor in FOCK_ACC

 Linear response parameters
   LEPSILON=     F    determine dielectric tensor
   LRPA    =     F    only Hartree local field effects (RPA)
   LNABLA  =     F    use nabla operator in PAW spheres
   LVEL    =     F    velocity operator in full k-point grid
   CSHIFT  =0.1000    complex shift for real part using Kramers Kronig
   OMEGAMAX=  -1.0    maximum frequency
   DEG_THRESHOLD= 0.2000000E-02 threshold for treating states as degnerate
   RTIME   =   -0.100 relaxation time in fs
  (WPLASMAI=    0.000 imaginary part of plasma frequency in eV, 0.658/RTIME)
   DFIELD  = 0.0000000 0.0000000 0.0000000 field for delta impulse in time
 
  Optional k-point grid parameters
   LKPOINTS_OPT  =     F    use optional k-point grid
   KPOINTS_OPT_MODE=     1    mode for optional k-point grid
 
 Orbital magnetization related:
   ORBITALMAG=     F  switch on orbital magnetization
   LCHIMAG   =     F  perturbation theory with respect to B field
   DQ        =  0.001000  dq finite difference perturbation B field
   LLRAUG    =     F  two centre corrections for induced B field
   LBONE     =     F  B-component reconstruction in AE one-centre
   LVGVCALC  =     T  calculate vGv susceptibility
   LVGVAPPL  =     F  apply vGv susceptibility instead of pGv for G=0

 Random number generation:
   RANDOM_GENERATOR = DEFAULT
   PCG_SEED         = not used


--------------------------------------------------------------------------------------------------------


 conjugate gradient relaxation of ions
 charge density and potential will be updated during run
 spin polarized calculation
 Conjugate gradient for all bands (Freysoldt, et al. PRB 79, 241103 (2009))
 preconditioned conjugated gradient                                        
 perform sub-space diagonalisation
    before iterative eigenvector-optimisation
 modified Broyden-mixing scheme, WC =      100.0
 initial mixing is a Kerker type mixing with AMIX =  0.4000 and BMIX =      1.0000
 Hartree-type preconditioning will be used
 using additional bands           91
 real space projection scheme for non local part
 use partial core corrections
 no Harris-corrections to forces 
 use gradient corrections 
 use of overlap-Matrix (Vanderbilt PP)
 Gauss-broadening in eV      SIGMA  =   0.05


--------------------------------------------------------------------------------------------------------


  energy-cutoff  :      520.00
  volume of cell :      334.58
      direct lattice vectors                 reciprocal lattice vectors
    -2.908332625 -5.048353756 -0.052441198    -0.171493839 -0.099321775  0.003290980
    -2.933536592  5.063094535 -0.063177975    -0.170998554  0.098475266  0.003483795
    -0.224199437  0.011608700-11.332740771     0.001746858 -0.000089380 -0.088274558

  length of vectors
     5.826407502  5.851884711 11.334964205     0.198206414  0.197357596  0.088291886


 
 k-points in units of 2pi/SCALE and weight: pymatgen with grid density = 1046 / numb
   0.00000000  0.00000000  0.00000000       0.031
  -0.04287346 -0.02483044  0.00082275       0.062
  -0.08574692 -0.04966089  0.00164549       0.031
  -0.04274964  0.02461882  0.00087095       0.062
  -0.08562310 -0.00021163  0.00169369       0.062
  -0.12849656 -0.02504207  0.00251644       0.062
   0.00012382  0.04944926  0.00004820       0.062
  -0.08549928  0.04923763  0.00174190       0.031
  -0.12837274  0.02440719  0.00256464       0.062
  -0.17124620 -0.00042325  0.00338739       0.031
   0.00087343 -0.00004469 -0.04413728       0.031
  -0.04200003 -0.02487513 -0.04331453       0.062
  -0.08487349 -0.04970558 -0.04249179       0.031
  -0.04187621  0.02457413 -0.04326633       0.062
  -0.08474967 -0.00025632 -0.04244359       0.062
  -0.12762313 -0.02508676 -0.04162084       0.062
   0.00099725  0.04940457 -0.04408908       0.062
  -0.08462585  0.04919294 -0.04239538       0.031
  -0.12749931  0.02436250 -0.04157264       0.062
  -0.17037277 -0.00046794 -0.04074989       0.031
 
 k-points in reciprocal lattice and weights: pymatgen with grid density = 1046 / numb
   0.00000000  0.00000000  0.00000000       0.031
   0.25000000  0.00000000 -0.00000000       0.062
   0.50000000  0.00000000 -0.00000000       0.031
  -0.00000000  0.25000000 -0.00000000       0.062
   0.25000000  0.25000000 -0.00000000       0.062
   0.50000000  0.25000000  0.00000000       0.062
  -0.25000000  0.25000000 -0.00000000       0.062
  -0.00000000  0.50000000  0.00000000       0.031
   0.25000000  0.50000000  0.00000000       0.062
   0.50000000  0.50000000  0.00000000       0.031
   0.00000000  0.00000000  0.50000000       0.031
   0.25000000  0.00000000  0.50000000       0.062
   0.50000000  0.00000000  0.50000000       0.031
  -0.00000000  0.25000000  0.50000000       0.062
   0.25000000  0.25000000  0.50000000       0.062
   0.50000000  0.25000000  0.50000000       0.062
  -0.25000000  0.25000000  0.50000000       0.062
  -0.00000000  0.50000000  0.50000000       0.031
   0.25000000  0.50000000  0.50000000       0.062
   0.50000000  0.50000000  0.50000000       0.031
 
 position of ions in fractional coordinates (direct lattice) 
   0.49441380  0.50952221  0.24766989
   0.14146462  0.28748788  0.75042992
   0.81448124  0.15138955  0.24980660
   0.50031040  0.98177949  0.54295017
   0.00164479  0.02240866  0.00626159
   0.99884791  0.98818166  0.49659077
   0.00063064  0.48750221  0.49856686
   0.49928281  0.48853101  0.49936051
   0.00429590  0.50983575  0.00092020
   0.50193642  0.01365446  0.99494730
   0.50320170  0.51493668  0.99918958
   0.31614470  0.15835151  0.58294390
   0.31286206  0.61992580  0.58688527
   0.85508736  0.16188373  0.58529417
   0.82603778  0.64864953  0.58591044
   0.17235029  0.32886063  0.40412019
   0.14681719  0.81406412  0.40728432
   0.69100087  0.36294077  0.40228967
   0.68342797  0.81682580  0.40483771
   0.17567566  0.36336764  0.09325782
   0.17003530  0.83470311  0.08066407
   0.66036369  0.33550657  0.09199762
   0.63987872  0.83298587  0.08934458
   0.36411648  0.20465080  0.91044186
   0.34096041  0.68026275  0.90903579
   0.83748241  0.20065832  0.91192933
   0.83724889  0.67113349  0.91706988
 
 position of ions in cartesian coordinates  (Angst):
  -2.98814927  0.08665845 -2.86489688
  -1.42302833  0.75012638 -8.53000925
  -2.86889567 -3.34238990 -2.88327025
  -4.45688423  2.45140142 -6.24137721
  -0.07192405  0.10522636 -0.07246299
  -5.91518441 -0.03351565 -5.74254661
  -1.54371809  2.47087382 -5.68096151
  -2.99716041 -0.04128064 -5.71617055
  -1.50832206  2.55967006 -0.04286404
  -1.72292053 -2.45326874-11.30266467
  -3.19808126  0.07843223-11.38247765
  -1.51467959 -0.78749441 -6.63293542
  -2.86006129  1.56611753 -6.70659119
  -3.09299292 -3.49035638 -6.68805641
  -4.43659055 -0.87915535 -6.72426989
  -1.55658017  0.79965855 -4.60960437
  -2.90639304  3.38522651 -4.67477780
  -3.16455352 -1.64614334 -4.61821133
  -4.47458863  0.69017974 -4.67536596
  -1.59778387  0.95397442 -1.08903616
  -2.96123617  3.36871884 -0.97579665
  -2.92540387 -1.63398003 -1.09841201
  -4.32460570  0.98818925 -1.09870136
  -1.86344301 -0.79145341-10.34982570
  -3.19100728  1.73349856-10.36272494
  -3.22877000 -3.20136909-10.39125445
  -4.60939944 -0.81807029-10.47922246
 


--------------------------------------------------------------------------------------------------------


 k-point   1 :   0.0000 0.0000 0.0000  plane waves:    8999
 k-point   2 :   0.2500 0.0000-0.0000  plane waves:    8981
 k-point   3 :   0.5000 0.0000-0.0000  plane waves:    9024
 k-point   4 :  -0.0000 0.2500-0.0000  plane waves:    8997
 k-point   5 :   0.2500 0.2500-0.0000  plane waves:    9007
 k-point   6 :   0.5000 0.2500 0.0000  plane waves:    9010
 k-point   7 :  -0.2500 0.2500-0.0000  plane waves:    8993
 k-point   8 :  -0.0000 0.5000 0.0000  plane waves:    9026
 k-point   9 :   0.2500 0.5000 0.0000  plane waves:    9011
 k-point  10 :   0.5000 0.5000 0.0000  plane waves:    9012
 k-point  11 :   0.0000 0.0000 0.5000  plane waves:    9002
 k-point  12 :   0.2500 0.0000 0.5000  plane waves:    8995
 k-point  13 :   0.5000 0.0000 0.5000  plane waves:    9020
 k-point  14 :  -0.0000 0.2500 0.5000  plane waves:    9007
 k-point  15 :   0.2500 0.2500 0.5000  plane waves:    9021
 k-point  16 :   0.5000 0.2500 0.5000  plane waves:    9009
 k-point  17 :  -0.2500 0.2500 0.5000  plane waves:    8997
 k-point  18 :  -0.0000 0.5000 0.5000  plane waves:    9040
 k-point  19 :   0.2500 0.5000 0.5000  plane waves:    9010
 k-point  20 :   0.5000 0.5000 0.5000  plane waves:    9028

 maximum and minimum number of plane-waves per node :      9040     8981

 maximum number of plane-waves:      9040
 maximum index in each direction: 
   IXMAX=   11   IYMAX=   10   IZMAX=   21
   IXMIN=  -11   IYMIN=  -11   IZMIN=  -21


 serial   3D FFT for wavefunctions
 parallel 3D FFT for charge:
    minimum data exchange during FFTs selected (reduces bandwidth)


 FFT grid for exact exchange (Hartree Fock) 
  NGX = 24; NGY = 24; NGZ = 48

 
 Radii for the augmentation spheres in the non-local exchange
 for species   1 augmentation radius   1.249 (default was   0.925)
       energy cutoff for augmentation   2080.0
 for species   2 augmentation radius   0.956 (default was   0.708)
       energy cutoff for augmentation   2080.0
 for species   3 augmentation radius   1.293 (default was   0.958)
       energy cutoff for augmentation   2080.0
 for species   4 augmentation radius   0.974 (default was   0.722)
       energy cutoff for augmentation   2080.0
 Maximum index for augmentation-charges in exchange          752
  SETUP_FOCK is finished

 total amount of memory used by VASP MPI-rank0   123594. kBytes
=======================================================================

   base      :      30000. kBytes
   nonlr-proj:      17794. kBytes
   fftplans  :       1830. kBytes
   grid      :      18683. kBytes
   one-center:        839. kBytes
   HF        :        259. kBytes
   wavefun   :      54189. kBytes
 
     INWAV:  cpu time      0.0000: real time      0.0000
 Broyden mixing: mesh for mixing (old mesh)
   NGX = 21   NGY = 21   NGZ = 43
  (NGX  = 96   NGY  = 96   NGZ  =168)
  gives a total of  18963 points

 initial charge density was supplied:
 charge density of overlapping atoms calculated
 number of electron     201.0000000 magnetization      30.6000000
 charge density for first step will be calculated from the start-wavefunctions


--------------------------------------------------------------------------------------------------------


 Maximum index for non-local projection operator         7125
 Maximum index for augmentation-charges          699 (set IRDMAX)


--------------------------------------------------------------------------------------------------------


 First call to EWALD:  gamma=   0.255
 Maximum number of real-space cells 4x 4x 2
 Maximum number of reciprocal cells 2x 2x 4

    FEWALD:  cpu time      0.0015: real time      0.0015


--------------------------------------- Ionic step        1  -------------------------------------------




--------------------------------------- Iteration      1(   1)  ---------------------------------------


    POTLOK:  cpu time      0.0628: real time      0.0643
    SETDIJ:  cpu time      0.0133: real time      0.0136
    TRIAL :  cpu time     12.0741: real time     12.1209
    CORREC:  cpu time      0.0013: real time      0.0013
    --------------------------------------------
      LOOP:  cpu time     12.1804: real time     12.2316

 eigenvalue-minimisations  : 15360
 total energy-change (2. order) :-0.5813994E+03  (-0.1235675E+05)
 number of electron     201.0000000 magnetization      30.6000000
 augmentation part      201.0000000 magnetization      30.6000000

 Free energy of the ion-electron system (eV)
  ---------------------------------------------------
  alpha Z        PSCENC =       644.68426823
  Ewald energy   TEWEN  =    -10648.11377858
  -Hartree energ DENC   =     -9475.19117321
  -exchange      EXHF   =         0.00000000
  -V(xc)+E(xc)   XCENC  =       957.32679652
  PAW double counting   =     17083.12956280   -19955.55392584
  entropy T*S    EENTRO =        -0.01370423
  eigenvalues    EBANDS =      -876.15098075
  atomic energy  EATOM  =     21688.48351686
  ---------------------------------------------------
  free energy    TOTEN  =      -581.39941819 eV

  energy without entropy =     -581.38571397  energy(sigma->0) =     -581.39256608
  exchange ACFDT corr.  =         0.00000000  see jH, gK, PRB 81, 115126


--------------------------------------------------------------------------------------------------------




--------------------------------------- Iteration      1(   2)  ---------------------------------------


    TRIAL :  cpu time     13.3811: real time     13.4427
    CORREC:  cpu time      0.0009: real time      0.0024
    --------------------------------------------
      LOOP:  cpu time     13.3824: real time     13.4456

 eigenvalue-minimisations  : 16384
 total energy-change (2. order) :-0.2066616E+04  (-0.1949113E+04)
 number of electron     201.0000000 magnetization      30.6000000
 augmentation part      201.0000000 magnetization      30.6000000

 Free energy of the ion-electron system (eV)
  ---------------------------------------------------
  alpha Z        PSCENC =       644.68426823
  Ewald energy   TEWEN  =    -10648.11377858
  -Hartree energ DENC   =     -9475.19117321
  -exchange      EXHF   =         0.00000000
  -V(xc)+E(xc)   XCENC  =       957.32679652
  PAW double counting   =     17083.12956280   -19955.55392584
  entropy T*S    EENTRO =        -0.02118767
  eigenvalues    EBANDS =     -2942.75917171
  atomic energy  EATOM  =     21688.48351686
  ---------------------------------------------------
  free energy    TOTEN  =     -2648.01509260 eV

  energy without entropy =    -2647.99390492  energy(sigma->0) =    -2648.00449876
  exchange ACFDT corr.  =         0.00000000  see jH, gK, PRB 81, 115126


--------------------------------------------------------------------------------------------------------




--------------------------------------- Iteration      1(   3)  ---------------------------------------


    TRIAL :  cpu time     19.3366: real time     19.3990
    CORREC:  cpu time      0.0009: real time      0.0009
    --------------------------------------------
      LOOP:  cpu time     19.3660: real time     19.4343

 eigenvalue-minimisations  : 22016
 total energy-change (2. order) :-0.1326883E+03  (-0.1316202E+03)
 number of electron     201.0000000 magnetization      30.6000000
 augmentation part      201.0000000 magnetization      30.6000000

 Free energy of the ion-electron system (eV)
  ---------------------------------------------------
  alpha Z        PSCENC =       644.68426823
  Ewald energy   TEWEN  =    -10648.11377858
  -Hartree energ DENC   =     -9475.19117321
  -exchange      EXHF   =         0.00000000
  -V(xc)+E(xc)   XCENC  =       957.32679652
  PAW double counting   =     17083.12956280   -19955.55392584
  entropy T*S    EENTRO =        -0.03909012
  eigenvalues    EBANDS =     -3075.42952453
  atomic energy  EATOM  =     21688.48351686
  ---------------------------------------------------
  free energy    TOTEN  =     -2780.70334787 eV

  energy without entropy =    -2780.66425775  energy(sigma->0) =    -2780.68380281
  exchange ACFDT corr.  =         0.00000000  see jH, gK, PRB 81, 115126


--------------------------------------------------------------------------------------------------------




--------------------------------------- Iteration      1(   4)  ---------------------------------------


    TRIAL :  cpu time     14.8517: real time     14.8928
    CORREC:  cpu time      0.0008: real time      0.0008
    --------------------------------------------
      LOOP:  cpu time     14.8534: real time     14.8945

 eigenvalue-minimisations  : 18496
 total energy-change (2. order) :-0.2353339E+01  (-0.2351794E+01)
 number of electron     201.0000000 magnetization      30.6000000
 augmentation part      201.0000000 magnetization      30.6000000

 Free energy of the ion-electron system (eV)
  ---------------------------------------------------
  alpha Z        PSCENC =       644.68426823
  Ewald energy   TEWEN  =    -10648.11377858
  -Hartree energ DENC   =     -9475.19117321
  -exchange      EXHF   =         0.00000000
  -V(xc)+E(xc)   XCENC  =       957.32679652
  PAW double counting   =     17083.12956280   -19955.55392584
  entropy T*S    EENTRO =        -0.03930766
  eigenvalues    EBANDS =     -3077.78264564
  atomic energy  EATOM  =     21688.48351686
  ---------------------------------------------------
  free energy    TOTEN  =     -2783.05668652 eV

  energy without entropy =    -2783.01737886  energy(sigma->0) =    -2783.03703269
  exchange ACFDT corr.  =         0.00000000  see jH, gK, PRB 81, 115126


--------------------------------------------------------------------------------------------------------




--------------------------------------- Iteration      1(   5)  ---------------------------------------


    POTLOK:  cpu time      0.0968: real time      0.0971
    SETDIJ:  cpu time      0.0689: real time      0.0691
    TRIAL :  cpu time    566.9015: real time    568.3196
    CORREC:  cpu time      0.0156: real time      0.0156
    CHARGE:  cpu time      0.4009: real time      0.4022
    --------------------------------------------
      LOOP:  cpu time    567.4847: real time    568.9045

 eigenvalue-minimisations  : 19968
 total energy-change (2. order) : 0.2458018E+04  (-0.3766834E+01)
 number of electron     201.0000041 magnetization      15.0000012
 augmentation part       63.6167221 magnetization       9.5218542

 Free energy of the ion-electron system (eV)
  ---------------------------------------------------
  alpha Z        PSCENC =       644.68426823
  Ewald energy   TEWEN  =    -10648.11377858
  -Hartree energ DENC   =     -9475.19117321
  -exchange      EXHF   =       637.48742493
  -V(xc)+E(xc)   XCENC  =       731.22818983
  PAW double counting   =     17299.88963418   -17822.66274356
  entropy T*S    EENTRO =        -0.01986003
  eigenvalues    EBANDS =     -3380.82417424
  atomic energy  EATOM  =     21688.48351686
  ---------------------------------------------------
  free energy    TOTEN  =      -325.03869559 eV

  energy without entropy =     -325.01883556  energy(sigma->0) =     -325.02876557
  exchange ACFDT corr.  =        -0.37465087  see jH, gK, PRB 81, 115126


--------------------------------------------------------------------------------------------------------




--------------------------------------- Iteration      1(   6)  ---------------------------------------


    POTLOK:  cpu time      0.0980: real time      0.0983
    SETDIJ:  cpu time      0.0685: real time      0.0687
    TRIAL :  cpu time    552.3866: real time    553.7288
    CORREC:  cpu time    551.7554: real time    553.2089
    CHARGE:  cpu time      0.3963: real time      0.3973
    --------------------------------------------
      LOOP:  cpu time   1104.7060: real time   1107.5047

 eigenvalue-minimisations  :     0
 total energy-change (2. order) : 0.3795431E+03  (-0.2201013E+03)
 number of electron     201.0000046 magnetization      15.0001103
 augmentation part       68.7273964 magnetization      11.9788481

 Free energy of the ion-electron system (eV)
  ---------------------------------------------------
  alpha Z        PSCENC =       644.68426823
  Ewald energy   TEWEN  =    -10648.11377858
  -Hartree energ DENC   =     -8531.05494452
  -exchange      EXHF   =       643.06603299
  -V(xc)+E(xc)   XCENC  =       736.21910601
  PAW double counting   =     20531.21737177   -21050.95157368
  entropy T*S    EENTRO =        -0.01271916
  eigenvalues    EBANDS =     -3959.02577101
  atomic energy  EATOM  =     21688.48351686
  ---------------------------------------------------
  free energy    TOTEN  =        54.50436804 eV

  energy without entropy =       54.51708720  energy(sigma->0) =       54.51072762
  exchange ACFDT corr.  =        -0.24117609  see jH, gK, PRB 81, 115126


--------------------------------------------------------------------------------------------------------




--------------------------------------- Iteration      1(   7)  ---------------------------------------


    POTLOK:  cpu time      0.1000: real time      0.1003
    SETDIJ:  cpu time      0.0655: real time      0.0657
    TRIAL :  cpu time    553.5725: real time    555.1524
    CORREC:  cpu time    550.8558: real time    552.7751
    CHARGE:  cpu time      0.3965: real time      0.3974
    --------------------------------------------
      LOOP:  cpu time   1104.9949: real time   1108.5218

 eigenvalue-minimisations  :     0
 total energy-change (2. order) :-0.2116997E+03  (-0.3276619E+02)
 number of electron     201.0000047 magnetization      15.3764700
 augmentation part       69.5513384 magnetization      12.6327216

 Free energy of the ion-electron system (eV)
  ---------------------------------------------------
  alpha Z        PSCENC =       644.68426823
  Ewald energy   TEWEN  =    -10648.11377858
  -Hartree energ DENC   =     -9030.09463856
  -exchange      EXHF   =       612.07392178
  -V(xc)+E(xc)   XCENC  =       730.72786412
  PAW double counting   =     23557.32164462   -24201.21274529
  entropy T*S    EENTRO =        -0.00539131
  eigenvalues    EBANDS =     -3511.05268820
  atomic energy  EATOM  =     21688.48351686
  ---------------------------------------------------
  free energy    TOTEN  =      -157.19535418 eV

  energy without entropy =     -157.18996287  energy(sigma->0) =     -157.19265852
  exchange ACFDT corr.  =       -10.95624752  see jH, gK, PRB 81, 115126


--------------------------------------------------------------------------------------------------------




--------------------------------------- Iteration      1(   8)  ---------------------------------------


    POTLOK:  cpu time      0.1131: real time      0.1143
    SETDIJ:  cpu time      0.0687: real time      0.0689
    TRIAL :  cpu time    552.8187: real time    554.5190
    CORREC:  cpu time    550.1125: real time    551.5895
    CHARGE:  cpu time      0.3975: real time      0.3985
    --------------------------------------------
      LOOP:  cpu time   1103.5247: real time   1106.7116

 eigenvalue-minimisations  :     0
 total energy-change (2. order) :-0.3089478E+02  (-0.2780208E+02)
 number of electron     201.0000044 magnetization      15.0029427
 augmentation part       68.0346237 magnetization      12.2654997

 Free energy of the ion-electron system (eV)
  ---------------------------------------------------
  alpha Z        PSCENC =       644.68426823
  Ewald energy   TEWEN  =    -10648.11377858
  -Hartree energ DENC   =     -9401.30387262
  -exchange      EXHF   =       605.70025553
  -V(xc)+E(xc)   XCENC  =       732.51206918
  PAW double counting   =     24299.96144893   -24940.27752598
  entropy T*S    EENTRO =        -0.00690603
  eigenvalues    EBANDS =     -3169.73112922
  atomic energy  EATOM  =     21688.48351686
  ---------------------------------------------------
  free energy    TOTEN  =      -188.09013895 eV

  energy without entropy =     -188.08323293  energy(sigma->0) =     -188.08668594
  exchange ACFDT corr.  =        -2.49629370  see jH, gK, PRB 81, 115126


--------------------------------------------------------------------------------------------------------




--------------------------------------- Iteration      1(   9)  ---------------------------------------


    POTLOK:  cpu time      0.0979: real time      0.0982
    SETDIJ:  cpu time      0.0684: real time      0.0685
    TRIAL :  cpu time    553.4197: real time    554.9679
    CORREC:  cpu time    550.5418: real time    551.8871
    CHARGE:  cpu time      0.3974: real time      0.3984
    --------------------------------------------
      LOOP:  cpu time   1104.5258: real time   1107.4207

 eigenvalue-minimisations  :     0
 total energy-change (2. order) :-0.2782041E+02  (-0.1139290E+02)
 number of electron     201.0000044 magnetization      15.0000016
 augmentation part       67.0698471 magnetization      11.9083320

 Free energy of the ion-electron system (eV)
  ---------------------------------------------------
  alpha Z        PSCENC =       644.68426823
  Ewald energy   TEWEN  =    -10648.11377858
  -Hartree energ DENC   =     -9357.05049540
  -exchange      EXHF   =       603.25392066
  -V(xc)+E(xc)   XCENC  =       729.45984017
  PAW double counting   =     23403.67502702   -23993.17301560
  entropy T*S    EENTRO =        -0.00770501
  eigenvalues    EBANDS =     -3287.12292335
  atomic energy  EATOM  =     21688.48351686
  ---------------------------------------------------
  free energy    TOTEN  =      -215.91054600 eV

  energy without entropy =     -215.90284098  energy(sigma->0) =     -215.90669349
  exchange ACFDT corr.  =        -1.76535933  see jH, gK, PRB 81, 115126


--------------------------------------------------------------------------------------------------------




--------------------------------------- Iteration      1(  10)  ---------------------------------------


    POTLOK:  cpu time      0.0988: real time      0.0991
    SETDIJ:  cpu time      0.0686: real time      0.0688
    TRIAL :  cpu time    553.4221: real time    556.3011
    CORREC:  cpu time    548.6136: real time    551.6858
    CHARGE:  cpu time      0.3968: real time      0.3978
    --------------------------------------------
      LOOP:  cpu time   1102.6141: real time   1108.5733

 eigenvalue-minimisations  :     0
 total energy-change (2. order) :-0.1121326E+02  (-0.5428553E+01)
 number of electron     201.0000044 magnetization      15.0000016
 augmentation part       67.2683665 magnetization      11.7695715

 Free energy of the ion-electron system (eV)
  ---------------------------------------------------
  alpha Z        PSCENC =       644.68426823
  Ewald energy   TEWEN  =    -10648.11377858
  -Hartree energ DENC   =     -9253.85833290
  -exchange      EXHF   =       604.58628869
  -V(xc)+E(xc)   XCENC  =       728.73151350
  PAW double counting   =     22563.63408155   -23123.12730786
  entropy T*S    EENTRO =        -0.00631444
  eigenvalues    EBANDS =     -3432.13634973
  atomic energy  EATOM  =     21688.48351686
  ---------------------------------------------------
  free energy    TOTEN  =      -227.12380525 eV

  energy without entropy =     -227.11749081  energy(sigma->0) =     -227.12064803
  exchange ACFDT corr.  =        -1.96505198  see jH, gK, PRB 81, 115126


--------------------------------------------------------------------------------------------------------




--------------------------------------- Iteration      1(  11)  ---------------------------------------


    POTLOK:  cpu time      0.0968: real time      0.0970
    SETDIJ:  cpu time      0.0674: real time      0.0676
    TRIAL :  cpu time    552.2719: real time    554.0888
    CORREC:  cpu time    551.6280: real time    553.0521
    CHARGE:  cpu time      0.3954: real time      0.3965
    --------------------------------------------
      LOOP:  cpu time   1104.4672: real time   1107.7263

 eigenvalue-minimisations  :     0
 total energy-change (2. order) :-0.5421415E+01  (-0.2256122E+01)
 number of electron     201.0000045 magnetization      15.0000016
 augmentation part       67.8611253 magnetization      11.7933911

 Free energy of the ion-electron system (eV)
  ---------------------------------------------------
  alpha Z        PSCENC =       644.68426823
  Ewald energy   TEWEN  =    -10648.11377858
  -Hartree energ DENC   =     -9271.91891379
  -exchange      EXHF   =       606.22732820
  -V(xc)+E(xc)   XCENC  =       730.66699055
  PAW double counting   =     22168.93985683   -22724.16628622
  entropy T*S    EENTRO =        -0.00475570
  eigenvalues    EBANDS =     -3427.34188742
  atomic energy  EATOM  =     21688.48351686
  ---------------------------------------------------
  free energy    TOTEN  =      -232.54521977 eV

  energy without entropy =     -232.54046407  energy(sigma->0) =     -232.54284192
  exchange ACFDT corr.  =        -0.67834322  see jH, gK, PRB 81, 115126


--------------------------------------------------------------------------------------------------------




--------------------------------------- Iteration      1(  12)  ---------------------------------------


    POTLOK:  cpu time      0.1237: real time      0.1240
    SETDIJ:  cpu time      0.0654: real time      0.0655
    TRIAL :  cpu time    552.9131: real time    554.5478
    CORREC:  cpu time    548.3250: real time    550.6128
    CHARGE:  cpu time      0.4004: real time      0.4013
    --------------------------------------------
      LOOP:  cpu time   1101.8533: real time   1105.8021

 eigenvalue-minimisations  :     0
 total energy-change (2. order) :-0.2242132E+01  (-0.1177738E+01)
 number of electron     201.0000045 magnetization      15.0000017
 augmentation part       68.1491952 magnetization      11.8514981

 Free energy of the ion-electron system (eV)
  ---------------------------------------------------
  alpha Z        PSCENC =       644.68426823
  Ewald energy   TEWEN  =    -10648.11377858
  -Hartree energ DENC   =     -9327.92232933
  -exchange      EXHF   =       606.83324650
  -V(xc)+E(xc)   XCENC  =       732.53750304
  PAW double counting   =     22032.20018987   -22594.88895194
  entropy T*S    EENTRO =        -0.00558936
  eigenvalues    EBANDS =     -3368.59626079
  atomic energy  EATOM  =     21688.48351686
  ---------------------------------------------------
  free energy    TOTEN  =      -234.78735183 eV

  energy without entropy =     -234.78176247  energy(sigma->0) =     -234.78455715
  exchange ACFDT corr.  =        -0.35855704  see jH, gK, PRB 81, 115126


--------------------------------------------------------------------------------------------------------




--------------------------------------- Iteration      1(  13)  ---------------------------------------


    POTLOK:  cpu time      0.0974: real time      0.0976
    SETDIJ:  cpu time      0.0680: real time      0.0681
    TRIAL :  cpu time    551.4330: real time    552.8116
    CORREC:  cpu time    550.4435: real time    552.2070
    CHARGE:  cpu time      0.3981: real time      0.3990
    --------------------------------------------
      LOOP:  cpu time   1102.4405: real time   1105.5839

 eigenvalue-minimisations  :     0
 total energy-change (2. order) :-0.1177769E+01  (-0.7630273E+00)
 number of electron     201.0000045 magnetization      15.0000017
 augmentation part       68.0433754 magnetization      11.9242399

 Free energy of the ion-electron system (eV)
  ---------------------------------------------------
  alpha Z        PSCENC =       644.68426823
  Ewald energy   TEWEN  =    -10648.11377858
  -Hartree energ DENC   =     -9341.26527948
  -exchange      EXHF   =       606.47307558
  -V(xc)+E(xc)   XCENC  =       732.88736209
  PAW double counting   =     21955.82376761   -22523.46019633
  entropy T*S    EENTRO =        -0.00615957
  eigenvalues    EBANDS =     -3351.47226739
  atomic energy  EATOM  =     21688.48351686
  ---------------------------------------------------
  free energy    TOTEN  =      -235.96512077 eV

  energy without entropy =     -235.95896120  energy(sigma->0) =     -235.96204099
  exchange ACFDT corr.  =        -0.11039380  see jH, gK, PRB 81, 115126


--------------------------------------------------------------------------------------------------------




--------------------------------------- Iteration      1(  14)  ---------------------------------------


    POTLOK:  cpu time      0.0962: real time      0.0964
    SETDIJ:  cpu time      0.0679: real time      0.0681
    TRIAL :  cpu time    552.9903: real time    554.8451
    CORREC:  cpu time    550.6043: real time    552.3801
    CHARGE:  cpu time      0.3978: real time      0.3989
    --------------------------------------------
      LOOP:  cpu time   1104.1581: real time   1107.8042

 eigenvalue-minimisations  :     0
 total energy-change (2. order) :-0.7635011E+00  (-0.5674201E+00)
 number of electron     201.0000046 magnetization      15.0000017
 augmentation part       67.8382111 magnetization      12.0468328

 Free energy of the ion-electron system (eV)
  ---------------------------------------------------
  alpha Z        PSCENC =       644.68426823
  Ewald energy   TEWEN  =    -10648.11377858
  -Hartree energ DENC   =     -9307.14748675
  -exchange      EXHF   =       606.06291006
  -V(xc)+E(xc)   XCENC  =       732.09979974
  PAW double counting   =     21891.54395991   -22458.32579491
  entropy T*S    EENTRO =        -0.00444121
  eigenvalues    EBANDS =     -3386.00985684
  atomic energy  EATOM  =     21688.48351686
  ---------------------------------------------------
  free energy    TOTEN  =      -236.72862185 eV

  energy without entropy =     -236.72418064  energy(sigma->0) =     -236.72640125
  exchange ACFDT corr.  =        -0.12762038  see jH, gK, PRB 81, 115126


--------------------------------------------------------------------------------------------------------




--------------------------------------- Iteration      1(  15)  ---------------------------------------


    POTLOK:  cpu time      0.0977: real time      0.0979
    SETDIJ:  cpu time      0.0682: real time      0.0684
    TRIAL :  cpu time    553.1501: real time    555.0704
    CORREC:  cpu time    550.5796: real time    552.2686
    CHARGE:  cpu time      0.3949: real time      0.3958
    --------------------------------------------
      LOOP:  cpu time   1104.2913: real time   1107.9018

 eigenvalue-minimisations  :     0
 total energy-change (2. order) :-0.5709528E+00  (-0.5055385E+00)
 number of electron     201.0000046 magnetization      15.0000018
 augmentation part       67.7605204 magnetization      12.2233123

 Free energy of the ion-electron system (eV)
  ---------------------------------------------------
  alpha Z        PSCENC =       644.68426823
  Ewald energy   TEWEN  =    -10648.11377858
  -Hartree energ DENC   =     -9272.26339944
  -exchange      EXHF   =       606.35298238
  -V(xc)+E(xc)   XCENC  =       731.48503471
  PAW double counting   =     21879.47524413   -22443.38560370
  entropy T*S    EENTRO =        -0.00308891
  eigenvalues    EBANDS =     -3424.01339807
  atomic energy  EATOM  =     21688.48351686
  ---------------------------------------------------
  free energy    TOTEN  =      -237.29957469 eV

  energy without entropy =     -237.29648578  energy(sigma->0) =     -237.29803023
  exchange ACFDT corr.  =        -0.14896282  see jH, gK, PRB 81, 115126


--------------------------------------------------------------------------------------------------------




--------------------------------------- Iteration      1(  16)  ---------------------------------------


    POTLOK:  cpu time      0.0977: real time      0.0979
    SETDIJ:  cpu time      0.0681: real time      0.0683
    TRIAL :  cpu time    554.0485: real time    556.0886
    CORREC:  cpu time    550.5846: real time    552.5045
    CHARGE:  cpu time      0.3973: real time      0.3983
    --------------------------------------------
      LOOP:  cpu time   1105.1966: real time   1109.1580

 eigenvalue-minimisations  :     0
 total energy-change (2. order) :-0.5068924E+00  (-0.4055963E+00)
 number of electron     201.0000046 magnetization      15.0000018
 augmentation part       67.8622766 magnetization      12.4146113

 Free energy of the ion-electron system (eV)
  ---------------------------------------------------
  alpha Z        PSCENC =       644.68426823
  Ewald energy   TEWEN  =    -10648.11377858
  -Hartree energ DENC   =     -9264.57720854
  -exchange      EXHF   =       607.19692737
  -V(xc)+E(xc)   XCENC  =       731.63775784
  PAW double counting   =     21938.87371798   -22501.48108739
  entropy T*S    EENTRO =        -0.00312709
  eigenvalues    EBANDS =     -3434.50749199
  atomic energy  EATOM  =     21688.48351686
  ---------------------------------------------------
  free energy    TOTEN  =      -237.80646712 eV

  energy without entropy =     -237.80334003  energy(sigma->0) =     -237.80490358
  exchange ACFDT corr.  =        -0.07444343  see jH, gK, PRB 81, 115126


[...]
    146      16.7968      0.00000
    147      17.0134      0.00000
    148      17.2339      0.00000
    149      17.3429      0.00000
    150      17.5158      0.00000
    151      17.6521      0.00000
    152      17.7805      0.00000
    153      17.8500      0.00000
    154      18.0437      0.00000
    155      18.2307      0.00000
    156      18.4016      0.00000
    157      18.4892      0.00000
    158      18.6580      0.00000
    159      18.6941      0.00000
    160      18.9312      0.00000
    161      19.1125      0.00000
    162      19.1712      0.00000
    163      19.2819      0.00000
    164      19.4579      0.00000
    165      19.6539      0.00000
    166      19.7097      0.00000
    167      19.8230      0.00000
    168      20.0017      0.00000
    169      20.1532      0.00000
    170      20.2058      0.00000
    171      20.4091      0.00000
    172      20.5237      0.00000
    173      20.6681      0.00000
    174      20.8936      0.00000
    175      21.0018      0.00000
    176      21.1200      0.00000
    177      21.3460      0.00000
    178      21.7292      0.00000
    179      21.9823      0.00000
    180      22.1799      0.00000
    181      22.6511      0.00000
    182      22.7116      0.00000
    183      22.9116      0.00000
    184      23.0477      0.00000
    185      23.2557      0.00000
    186      23.3115      0.00000
    187      23.7315      0.00000
    188      23.8822      0.00000
    189      23.9583      0.00000
    190      24.2000      0.00000
    191      24.3866      0.00000
    192      24.6746      0.00000


--------------------------------------------------------------------------------------------------------


 soft charge-density along one line, spin component           1
         0         1         2         3         4         5         6         7         8         9
 total charge-density along one line
 
 soft charge-density along one line, spin component           2
         0         1         2         3         4         5         6         7         8         9
 total charge-density along one line
 
 pseudopotential strength for first ion, spin component:           1
-21.990   0.008   0.003   0.490  -0.003  -0.001  -0.003  -0.010
  0.008 -21.975   0.002  -0.003   0.484  -0.001  -0.001  -0.003
  0.003   0.002 -21.988  -0.001  -0.001   0.489   0.002   0.006
  0.490  -0.003  -0.001   7.303   0.000   0.000   0.000  -0.001
 -0.003   0.484  -0.001   0.000   7.304  -0.000   0.000  -0.000
 -0.001  -0.001   0.489   0.000  -0.000   7.303  -0.000   0.000
 -0.003  -0.001   0.002   0.000   0.000  -0.000   1.394   6.763
 -0.010  -0.003   0.006  -0.001  -0.000   0.000   6.763  32.516
 pseudopotential strength for first ion, spin component:           2
-21.989   0.009   0.003   0.489  -0.004  -0.001  -0.003  -0.010
  0.009 -21.974   0.002  -0.004   0.484  -0.001  -0.001  -0.002
  0.003   0.002 -21.987  -0.001  -0.001   0.489   0.002   0.006
  0.489  -0.004  -0.001   7.303   0.000   0.000   0.000  -0.001
 -0.004   0.484  -0.001   0.000   7.304   0.000   0.000  -0.000
 -0.001  -0.001   0.489   0.000   0.000   7.303  -0.000   0.000
 -0.003  -0.001   0.002   0.000   0.000  -0.000   1.394   6.763
 -0.010  -0.002   0.006  -0.001  -0.000   0.000   6.763  32.516
 total augmentation occupancy for first ion, spin component:           1
  2.004  -0.000  -0.000  -0.004  -0.001  -0.000   0.012  -0.004
 -0.000   2.004  -0.000  -0.001  -0.007  -0.000   0.003  -0.001
 -0.000  -0.000   2.004  -0.000  -0.000  -0.004  -0.007   0.002
 -0.004  -0.001  -0.000   0.014   0.002   0.000   0.007  -0.000
 -0.001  -0.007  -0.000   0.002   0.030   0.000   0.002  -0.000
 -0.000  -0.000  -0.004   0.000   0.000   0.016  -0.004   0.000
  0.012   0.003  -0.007   0.007   0.002  -0.004   0.461  -0.010
 -0.004  -0.001   0.002  -0.000  -0.000   0.000  -0.010   0.000
 total augmentation occupancy for first ion, spin component:           2
  0.000   0.000   0.000  -0.000  -0.000  -0.000  -0.000   0.000
  0.000  -0.000   0.000  -0.000   0.000  -0.000   0.000  -0.000
  0.000   0.000   0.000  -0.000  -0.000   0.000   0.000  -0.000
 -0.000  -0.000  -0.000   0.000   0.000   0.000   0.000  -0.000
 -0.000   0.000  -0.000   0.000  -0.000   0.000  -0.001   0.000
 -0.000  -0.000   0.000   0.000   0.000   0.000  -0.001   0.000
 -0.000   0.000   0.000   0.000  -0.001  -0.001   0.009  -0.000
  0.000  -0.000  -0.000  -0.000   0.000   0.000  -0.000   0.000


------------------------ aborting loop because EDIFF is reached ----------------------------------------





 total charge

# of ion       s       p       d       tot
------------------------------------------
    1        0.046   5.995   0.000   6.041
    2        0.037   5.986   0.000   6.023
    3        0.038   5.986   0.000   6.023
    4        2.034   0.089   0.000   2.123
    5        2.030   0.082   0.000   2.111
    6        0.388   6.516   4.823  11.728
    7        0.390   6.518   4.826  11.734
    8        0.386   6.508   4.823  11.717
    9        0.396   6.535   4.839  11.771
   10        0.379   6.499   4.798  11.676
   11        0.390   6.521   4.830  11.741
   12        1.578   3.489   0.000   5.067
   13        1.578   3.488   0.000   5.066
   14        1.579   3.496   0.000   5.075
   15        1.580   3.453   0.000   5.033
   16        1.571   3.487   0.000   5.057
   17        1.602   3.274   0.000   4.876
   18        1.581   3.408   0.000   4.989
   19        1.578   3.424   0.000   5.003
   20        1.572   3.494   0.000   5.066
   21        1.592   3.370   0.000   4.963
   22        1.570   3.484   0.000   5.054
   23        1.573   3.466   0.000   5.038
   24        1.579   3.461   0.000   5.039
   25        1.578   3.459   0.000   5.038
   26        1.578   3.484   0.000   5.061
   27        1.601   3.313   0.000   4.914
--------------------------------------------------
tot         31.802 112.285  28.939 173.026



 magnetization (x)

# of ion       s       p       d       tot
------------------------------------------
    1        0.001   0.000   0.000   0.001
    2        0.003   0.001   0.000   0.004
    3        0.001   0.000   0.000   0.002
    4        0.003   0.005   0.000   0.009
    5        0.005   0.004   0.000   0.009
    6        0.031   0.046   2.938   3.014
    7        0.031   0.046   2.929   3.005
    8        0.030   0.043   2.955   3.028
    9        0.030   0.047   2.894   2.971
   10        0.030   0.044   2.964   3.039
   11        0.030   0.045   2.931   3.006
   12        0.001  -0.036   0.000  -0.035
   13        0.001  -0.028   0.000  -0.027
   14        0.001  -0.019   0.000  -0.018
   15       -0.001  -0.083   0.000  -0.083
   16        0.000  -0.058   0.000  -0.057
   17       -0.010  -0.696   0.000  -0.706
   18       -0.005  -0.305   0.000  -0.310
   19       -0.004  -0.255   0.000  -0.258
   20        0.001  -0.021   0.000  -0.019
   21       -0.006  -0.440   0.000  -0.446
   22       -0.000  -0.063   0.000  -0.064
   23       -0.001  -0.129   0.000  -0.130
   24        0.000  -0.073   0.000  -0.073
   25       -0.001  -0.080   0.000  -0.081
   26        0.001  -0.015   0.000  -0.014
   27       -0.009  -0.620   0.000  -0.629
--------------------------------------------------
tot          0.164  -2.638  17.610  15.136
 
    FORLOC:  cpu time      0.0024: real time      0.0024
    FORHF :  cpu time    975.4234: real time    977.9647
    FORNL :  cpu time      2.2596: real time      2.2659
    STRESS:  cpu time      6.7895: real time      6.8086
    FORCOR:  cpu time      0.0841: real time      0.0843
    OFIELD:  cpu time      0.0002: real time      0.0002

  FORCE on cell =-STRESS in cart. coord.  units (eV):
  Direction    XX          YY          ZZ          XY          YZ          ZX
  --------------------------------------------------------------------------------------
  Alpha Z   676.29377   676.29377   676.29377
  Ewald    -487.99830  -423.36267 -9647.14782    64.95844   109.43013   367.01344
  Hartree  5609.84617  5660.69432 -1783.37730    57.20238    81.87246   285.10708
  E(xc)    -820.30942  -820.22095  -821.88913    -0.03043    -0.00060    -0.04289
  Local   -8069.56839 -8188.20357  8429.08826  -119.97026  -186.99793  -639.16105
  n-local    73.07222    71.86403    72.57061     0.56397     0.92473     3.03433
  augment   782.47405   782.88466   791.33265    -0.36605    -0.63767    -1.80834
  Kinetic  3147.69476  3151.39066  3198.09845    -2.44095    -4.98483   -14.78636
  Fock     -911.22317  -911.21527  -915.31824     0.02190     0.32922     0.72593
  -------------------------------------------------------------------------------------
  Total       0.28169     0.12498    -0.34875    -0.06099    -0.06451     0.08216
  in kB       1.41508     0.62782    -1.75191    -0.30638    -0.32404     0.41270
  external pressure =        0.10 kB  Pullay stress =        0.00 kB


 VOLUME and BASIS-vectors are now :
 -----------------------------------------------------------------------------
  energy-cutoff  :      520.00
  volume of cell :      318.94
      direct lattice vectors                 reciprocal lattice vectors
    -2.836176481 -4.927749787 -0.055616374    -0.175650717 -0.101874754  0.003411417
    -2.870946667  4.947956367 -0.062144570    -0.174935845  0.100644996  0.003516441
    -0.223761289  0.006661482-11.322331754     0.001822979 -0.000051989 -0.088357088

  length of vectors
     5.685921928  5.720880082 11.324544575     0.203084410  0.201852249  0.088375907


 FORCES acting on ions:
    Electron-Ion                     Ewald-Force                    Non-Local-Force
 -----------------------------------------------------------------------------------------------
   -.246E+01 0.579E+01 0.143E+02   0.198E+01 -.496E+01 -.141E+02   0.426E+00 -.775E+00 -.172E+00
   -.257E+02 0.200E+02 0.351E+02   0.262E+02 -.201E+02 -.339E+02   -.476E+00 0.381E-01 -.112E+01
   -.307E+02 0.639E+01 0.110E+02   0.311E+02 -.629E+01 -.112E+02   -.319E+00 -.111E+00 0.266E+00
   -.948E+01 -.884E+01 0.933E+02   0.931E+01 0.878E+01 -.953E+02   0.174E+00 0.647E-01 0.191E+01
   -.219E+02 0.301E+02 -.194E+02   0.212E+02 -.293E+02 0.191E+02   0.530E+00 -.755E+00 0.275E+00
   -.442E+02 0.706E+02 0.114E+03   0.436E+02 -.691E+02 -.116E+03   0.508E+00 -.142E+01 0.204E+01
   0.309E+02 -.764E+02 0.130E+03   -.300E+02 0.751E+02 -.132E+03   -.945E+00 0.131E+01 0.216E+01
   0.290E+02 0.268E+02 0.171E+03   -.287E+02 -.266E+02 -.174E+03   -.278E+00 -.127E+00 0.234E+01
   0.295E+02 -.709E+02 -.125E+03   -.292E+02 0.691E+02 0.124E+03   -.376E+00 0.182E+01 -.113E+00
   -.471E+02 -.592E+01 -.217E+03   0.462E+02 0.595E+01 0.218E+03   0.990E+00 -.125E+00 -.921E+00
   0.568E+02 0.347E+02 -.175E+03   -.554E+02 -.336E+02 0.175E+03   -.138E+01 -.103E+01 -.835E+00
   -.169E+02 0.235E+03 0.446E+03   0.174E+02 -.246E+03 -.465E+03   -.370E+00 0.906E+01 0.170E+02
   0.187E+03 -.119E+03 0.464E+03   -.195E+03 0.124E+03 -.484E+03   0.711E+01 -.428E+01 0.179E+02
   -.206E+03 -.111E+03 0.465E+03   0.215E+03 0.116E+03 -.485E+03   -.768E+01 -.423E+01 0.178E+02
   0.234E+01 0.395E+01 0.565E+03   -.263E+01 -.418E+01 -.591E+03   0.270E+00 0.208E+00 0.231E+02
   0.679E+01 0.575E+01 -.410E+03   -.760E+01 -.595E+01 0.430E+03   0.671E+00 0.142E+00 -.178E+02
   0.176E+03 0.913E+02 -.379E+03   -.185E+03 -.964E+02 0.398E+03   0.790E+01 0.452E+01 -.167E+02
   -.149E+03 0.885E+02 -.329E+03   0.157E+03 -.926E+02 0.345E+03   -.703E+01 0.358E+01 -.138E+02
   0.805E+01 -.184E+03 -.314E+03   -.746E+01 0.194E+03 0.329E+03   -.517E+00 -.857E+01 -.130E+02
   -.151E+03 0.865E+02 0.358E+03   0.159E+03 -.919E+02 -.375E+03   -.682E+01 0.471E+01 0.155E+02
   0.409E+01 -.187E+03 0.371E+03   -.433E+01 0.198E+03 -.390E+03   0.233E+00 -.941E+01 0.165E+02
   -.192E+02 -.312E+01 0.401E+03   0.203E+02 0.329E+01 -.421E+03   -.924E+00 -.133E+00 0.174E+02
   0.144E+03 0.734E+02 0.321E+03   -.151E+03 -.772E+02 -.337E+03   0.653E+01 0.336E+01 0.134E+02
   -.146E+03 -.379E+02 -.476E+03   0.155E+03 0.415E+02 0.496E+03   -.790E+01 -.318E+01 -.173E+02
   0.550E+02 -.312E+02 -.564E+03   -.567E+02 0.325E+02 0.590E+03   0.152E+01 -.115E+01 -.221E+02
   -.344E+02 0.152E+03 -.481E+03   0.357E+02 -.162E+03 0.501E+03   -.119E+01 0.850E+01 -.174E+02
   0.174E+03 -.916E+02 -.482E+03   -.186E+03 0.971E+02 0.501E+03   0.991E+01 -.483E+01 -.162E+02
 -----------------------------------------------------------------------------------------------
   -.807E+00 0.322E+01 -.108E+02   -.853E-13 0.284E-13 -.171E-12   0.568E+00 -.281E+01 0.103E+02
 
 
 POSITION                                       TOTAL-FORCE (eV/Angst)
 -----------------------------------------------------------------------------------
     -2.92728      0.08446     -2.86265        -0.019681     -0.005808      0.004437
     -1.39832      0.72221     -8.52905        -0.017229     -0.040969     -0.013492
     -2.79763     -3.26379     -2.88306         0.007976     -0.017921      0.028163
     -4.36715      2.39112     -6.25815         0.004839      0.002798     -0.073080
     -0.11792      0.15028     -0.06769        -0.086392      0.027413      0.019282
     -5.78746     -0.01720     -5.76022        -0.122914      0.034085      0.036287
     -1.50143      2.40260     -5.68867        -0.053960     -0.146091      0.044172
     -2.92641     -0.04415     -5.72451         0.111423      0.085831      0.050394
     -1.46518      2.47879     -0.03975        -0.121058     -0.093418     -0.076682
     -1.69938     -2.39760    -11.27949         0.106006      0.006122     -0.014224
     -3.10632      0.08028    -11.37611         0.076933      0.102612     -0.053034
     -1.47572     -0.76468     -6.61092         0.022852      0.015735      0.034570
     -2.79201      1.53251     -6.67451         0.029648      0.005042      0.065249
     -3.02916     -3.41220     -6.67212        -0.006173     -0.013364     -0.007287
     -4.33867     -0.86203     -6.69889         0.019145      0.001580      0.052118
     -1.51308      0.78383     -4.63451        -0.034350     -0.041822     -0.067445
     -2.82263      3.32086     -4.62631         0.102591      0.056265     -0.004875
     -3.10150     -1.60689     -4.63269         0.018006     -0.013350     -0.033664
     -4.37966      0.65915     -4.68899         0.000237     -0.013489     -0.025849
     -1.56589      0.94393     -1.07017        -0.018678      0.040437      0.024416
     -2.88204      3.28549     -0.96644         0.018181     -0.012794      0.024864
     -2.85426     -1.59926     -1.07258         0.032920      0.013523      0.054693
     -4.21964      0.95932     -1.07283        -0.010959     -0.007438      0.045257
     -1.82219     -0.77657    -10.36953        -0.001800     -0.006476     -0.045068
     -3.11671      1.68603    -10.37462        -0.022955     -0.004294     -0.054730
     -3.16224     -3.12303    -10.40750        -0.007856      0.022387      0.019435
     -4.51240     -0.79886    -10.48084        -0.026752      0.003403     -0.033909
 -----------------------------------------------------------------------------------
    total drift:                               -0.065135      0.028064      0.012907


--------------------------------------------------------------------------------------------------------



  FREE ENERGIE OF THE ION-ELECTRON SYSTEM (eV)
  ---------------------------------------------------
  free  energy   TOTEN  =      -239.68374343 eV

  energy  without entropy=     -239.68030162  energy(sigma->0) =     -239.68202253
 
 d Force = 0.6750185E-04[ 0.697E-04, 0.653E-04]  d Energy = 0.4243284E-03-0.357E-03
 d Force =-0.2638174E+00[-0.264E+00,-0.263E+00]  d Ewald  =-0.9164710E+00 0.653E+00


--------------------------------------------------------------------------------------------------------


    POTLOK:  cpu time      0.1660: real time      0.1664


--------------------------------------------------------------------------------------------------------




--------------------------------------------------------------------------------------------------------


  
 reached required accuracy - stopping structural energy minimisation
     LOOP+:  cpu time   4904.8145: real time   4919.3353
    4ORBIT:  cpu time      0.0000: real time      0.0000



 total charge

# of ion       s       p       d       tot
------------------------------------------
    1        0.046   5.995   0.000   6.041
    2        0.037   5.986   0.000   6.023
    3        0.038   5.986   0.000   6.023
    4        2.034   0.089   0.000   2.123
    5        2.030   0.082   0.000   2.111
    6        0.388   6.516   4.823  11.728
    7        0.390   6.518   4.826  11.734
    8        0.386   6.508   4.823  11.717
    9        0.396   6.535   4.839  11.771
   10        0.379   6.499   4.798  11.676
   11        0.390   6.521   4.830  11.741
   12        1.578   3.489   0.000   5.067
   13        1.578   3.488   0.000   5.066
   14        1.579   3.496   0.000   5.075
   15        1.580   3.453   0.000   5.033
   16        1.571   3.487   0.000   5.057
   17        1.602   3.274   0.000   4.876
   18        1.581   3.408   0.000   4.989
   19        1.578   3.424   0.000   5.003
   20        1.572   3.494   0.000   5.066
   21        1.592   3.370   0.000   4.963
   22        1.570   3.484   0.000   5.054
   23        1.573   3.466   0.000   5.038
   24        1.579   3.461   0.000   5.039
   25        1.578   3.459   0.000   5.038
   26        1.578   3.484   0.000   5.061
   27        1.601   3.313   0.000   4.914
--------------------------------------------------
tot         31.802 112.285  28.939 173.026



 magnetization (x)

# of ion       s       p       d       tot
------------------------------------------
    1        0.001   0.000   0.000   0.001
    2        0.003   0.001   0.000   0.004
    3        0.001   0.000   0.000   0.002
    4        0.003   0.005   0.000   0.009
    5        0.005   0.004   0.000   0.009
    6        0.031   0.046   2.938   3.014
    7        0.031   0.046   2.929   3.005
    8        0.030   0.043   2.955   3.028
    9        0.030   0.047   2.894   2.971
   10        0.030   0.044   2.964   3.039
   11        0.030   0.045   2.931   3.006
   12        0.001  -0.036   0.000  -0.035
   13        0.001  -0.028   0.000  -0.027
   14        0.001  -0.019   0.000  -0.018
   15       -0.001  -0.083   0.000  -0.083
   16        0.000  -0.058   0.000  -0.057
   17       -0.010  -0.696   0.000  -0.706
   18       -0.005  -0.305   0.000  -0.310
   19       -0.004  -0.255   0.000  -0.258
   20        0.001  -0.021   0.000  -0.019
   21       -0.006  -0.440   0.000  -0.446
   22       -0.000  -0.063   0.000  -0.064
   23       -0.001  -0.129   0.000  -0.130
   24        0.000  -0.073   0.000  -0.073
   25       -0.001  -0.080   0.000  -0.081
   26        0.001  -0.015   0.000  -0.014
   27       -0.009  -0.620   0.000  -0.629
--------------------------------------------------
tot          0.164  -2.638  17.610  15.136
 

 total amount of memory used by VASP MPI-rank0   231409. kBytes
=======================================================================

   base      :      30000. kBytes
   nonlr-proj:      49719. kBytes
   fftplans  :       1830. kBytes
   grid      :      18683. kBytes
   one-center:        839. kBytes
   HF        :        259. kBytes
   wavefun   :      54189. kBytes
   fock_wrk  :      75890. kBytes
 
  
  
 General timing and accounting informations for this job:
 ========================================================
  
                  Total CPU time used (sec):   110687.891
                            User time (sec):   110104.344
                          System time (sec):      583.548
                         Elapsed time (sec):   111047.356
  
                   Maximum memory used (kb):      732916.
                   Average memory used (kb):          N/A
  
                          Minor page faults:     67790373
                          Major page faults:            2
                 Voluntary context switches:        52371
