 vasp.6.4.2 20Jul23 (build Nov 27 2023 21:25:52) complex                        
  
 executed on             LinuxIFC date 2024.12.19  16:12:24
 running  128 mpi-ranks, on    2 nodes
 distrk:  each k-point on  128 cores,    1 groups
 distr:  one band on NCORE=   1 cores,  128 groups


--------------------------------------------------------------------------------------------------------


 INCAR:
   ALGO = All
   EDIFF = 0.00135
   ENCUT = 520
   HFSCREEN = 0.2
   IBRION = -1
   ICHARG = 1
   ISIF = 3
   ISMEAR = -5
   ISPIN = 2
   LHFCALC = True
   LMAXMIX = 4
   LORBIT = 11
   LREAL = Auto
   LWAVE = False
   LCHARG = True
   MAGMOM = 5*0.6 6*3.0 16*0.6
   NELM = 100
   NSW = 0
   PREC = Accurate
   PRECFOCK = Fast
   SIGMA = 0.05
   NEDOS = 10000

 POTCAR:    PAW_PBE Na_pv 19Sep2006               
 POTCAR:    PAW_PBE Li_sv 10Sep2004               
 POTCAR:    PAW_PBE Mn_pv 02Aug2007               
 POTCAR:    PAW_PBE O 08Apr2002                   
 -----------------------------------------------------------------------------
|                                                                             |
|           W    W    AA    RRRRR   N    N  II  N    N   GGGG   !!!           |
|           W    W   A  A   R    R  NN   N  II  NN   N  G    G  !!!           |
|           W    W  A    A  R    R  N N  N  II  N N  N  G       !!!           |
|           W WW W  AAAAAA  RRRRR   N  N N  II  N  N N  G  GGG   !            |
|           WW  WW  A    A  R   R   N   NN  II  N   NN  G    G                |
|           W    W  A    A  R    R  N    N  II  N    N   GGGG   !!!           |
|                                                                             |
|     For optimal performance we recommend to set                             |
|       NCORE = 2 up to number-of-cores-per-socket                            |
|     NCORE specifies how many cores store one orbital (NPAR=cpu/NCORE).      |
|     This setting can greatly improve the performance of VASP for DFT.       |
|     The default, NCORE=1 might be grossly inefficient on modern             |
|     multi-core architectures or massively parallel machines. Do your        |
|     own testing! More info at https://www.vasp.at/wiki/index.php/NCORE      |
|     Unfortunately you need to use the default for GW and RPA                |
|     calculations (for HF NCORE is supported but not extensively tested      |
|     yet).                                                                   |
|                                                                             |
 -----------------------------------------------------------------------------

 POTCAR:    PAW_PBE Na_pv 19Sep2006               
   VRHFIN =Na: p6s1                                                                                 
   LEXCH  = PE                                                                                      
   EATOM  =   766.0439 eV,   56.3026 Ry                                                             
                                                                                                    
   TITEL  = PAW_PBE Na_pv 19Sep2006                                                                 
   LULTRA =        F    use ultrasoft PP ?                                                          
   IUNSCR =        1    unscreen: 0-lin 1-nonlin 2-no                                               
   RPACOR =    1.800    partial core radius                                                         
   POMASS =   22.990; ZVAL   =    7.000    mass and valenz                                          
   RCORE  =    2.200    outmost cutoff radius                                                       
   RWIGS  =    2.200; RWIGS  =    1.164    wigner-seitz radius (au A)                               
   ENMAX  =  259.561; ENMIN  =  194.671 eV                                                          
   ICORE  =        2    local potential                                                             
   LCOR   =        T    correct aug charges                                                         
   LPAW   =        T    paw PP                                                                      
   EAUG   =  368.056                                                                                
   DEXC   =    0.000                                                                                
   RMAX   =    2.245    core radius for proj-oper                                                   
   RAUG   =    1.300    factor for augmentation sphere                                              
   RDEP   =    2.259    radius for radial grids                                                     
   RDEPT  =    1.738    core radius for aug-charge                                                  
                                                                                                    
   Atomic configuration                                                                             
    5 entries                                                                                       
     n  l   j            E        occ.                                                              
     1  0  0.50     -1033.6933   2.0000                                                             
     2  0  0.50       -56.7526   2.0000                                                             
     2  1  1.50       -28.6721   6.0000                                                             
     3  0  0.50        -2.7440   1.0000                                                             
     3  2  1.50        -1.3606   0.0000                                                             
   Description                                                                                      
     l       E           TYP  RCUT    TYP  RCUT                                                     
     1    -28.6720912     23  2.000                                                                 
     1      6.8029130     23  2.000                                                                 
     0     -2.7439560     23  2.200                                                                 
     0     34.0145650     23  2.200                                                                 
     2     -1.3605826     23  2.200                                                                 
  local pseudopotential read in
  partial core-charges read in
  partial kinetic energy density read in
  atomic valenz-charges read in
  non local Contribution for L=           1  read in
    real space projection operators read in
  non local Contribution for L=           1  read in
    real space projection operators read in
  non local Contribution for L=           0  read in
    real space projection operators read in
  non local Contribution for L=           0  read in
    real space projection operators read in
    PAW grid and wavefunctions read in
 
   number of l-projection  operators is LMAX  =           4
   number of lm-projection operators is LMMAX =           8
 
 POTCAR:    PAW_PBE Li_sv 10Sep2004               
   VRHFIN =Li: 1s2s2p                                                                               
   LEXCH  = PE                                                                                      
   EATOM  =   202.7858 eV,   14.9043 Ry                                                             
                                                                                                    
   TITEL  = PAW_PBE Li_sv 10Sep2004                                                                 
   LULTRA =        F    use ultrasoft PP ?                                                          
   IUNSCR =        0    unscreen: 0-lin 1-nonlin 2-no                                               
   RPACOR =    0.000    partial core radius                                                         
   POMASS =    7.010; ZVAL   =    3.000    mass and valenz                                          
   RCORE  =    1.700    outmost cutoff radius                                                       
   RWIGS  =    2.050; RWIGS  =    1.085    wigner-seitz radius (au A)                               
   ENMAX  =  499.034; ENMIN  =  374.276 eV                                                          
   ICORE  =        2    local potential                                                             
   LCOR   =        T    correct aug charges                                                         
   LPAW   =        T    paw PP                                                                      
   EAUG   =  628.945                                                                                
   RMAX   =    1.732    core radius for proj-oper                                                   
   RAUG   =    1.300    factor for augmentation sphere                                              
   RDEP   =    1.728    radius for radial grids                                                     
   RDEPT  =    1.329    core radius for aug-charge                                                  
                                                                                                    
   Atomic configuration                                                                             
    4 entries                                                                                       
     n  l   j            E        occ.                                                              
     1  0  0.50       -51.8549   2.0000                                                             
     2  0  0.50        -2.8742   1.0000                                                             
     2  1  0.50        -1.3606   0.0000                                                             
     3  2  1.50        -1.3606   0.0000                                                             
   Description                                                                                      
     l       E           TYP  RCUT    TYP  RCUT                                                     
     0    -51.8548813     23  1.400                                                                 
     0     -2.8742052     23  1.700                                                                 
     1     -1.3605826     23  1.400                                                                 
     2     -1.3605826     23  1.400                                                                 
  local pseudopotential read in
  atomic valenz-charges read in
  non local Contribution for L=           0  read in
    real space projection operators read in
  non local Contribution for L=           0  read in
    real space projection operators read in
  non local Contribution for L=           1  read in
    real space projection operators read in
    PAW grid and wavefunctions read in
 
   number of l-projection  operators is LMAX  =           3
   number of lm-projection operators is LMMAX =           5
 
 POTCAR:    PAW_PBE Mn_pv 02Aug2007               
   VRHFIN =Mn: 3p4s3d                                                                               
   LEXCH  = PE                                                                                      
   EATOM  =  2025.2664 eV,  148.8529 Ry                                                             
                                                                                                    
   TITEL  = PAW_PBE Mn_pv 02Aug2007                                                                 
   LULTRA =        F    use ultrasoft PP ?                                                          
   IUNSCR =        1    unscreen: 0-lin 1-nonlin 2-no                                               
   RPACOR =    2.080    partial core radius                                                         
   POMASS =   54.938; ZVAL   =   13.000    mass and valenz                                          
   RCORE  =    2.300    outmost cutoff radius                                                       
   RWIGS  =    2.500; RWIGS  =    1.323    wigner-seitz radius (au A)                               
   ENMAX  =  269.864; ENMIN  =  202.398 eV                                                          
   ICORE  =        3    local potential                                                             
   LCOR   =        T    correct aug charges                                                         
   LPAW   =        T    paw PP                                                                      
   EAUG   =  569.085                                                                                
   DEXC   =    0.000                                                                                
   RMAX   =    2.343    core radius for proj-oper                                                   
   RAUG   =    1.300    factor for augmentation sphere                                              
   RDEP   =    2.338    radius for radial grids                                                     
   RDEPT  =    1.798    core radius for aug-charge                                                  
                                                                                                    
   Atomic configuration                                                                             
    8 entries                                                                                       
     n  l   j            E        occ.                                                              
     1  0  0.50     -6424.8287   2.0000                                                             
     2  0  0.50      -739.1154   2.0000                                                             
     2  1  1.50      -625.3949   6.0000                                                             
     3  0  0.50       -81.6100   2.0000                                                             
     3  1  1.50       -50.4667   6.0000                                                             
     3  2  2.50        -3.3745   6.0000                                                             
     4  0  0.50        -4.1331   1.0000                                                             
     4  3  2.50        -1.3606   0.0000                                                             
   Description                                                                                      
     l       E           TYP  RCUT    TYP  RCUT                                                     
     1    -50.4666628     23  2.000                                                                 
     1     -1.3605826     23  2.000                                                                 
     2     -3.3744729     23  2.300                                                                 
     2     -4.7350555     23  2.300                                                                 
     0     -4.1331431     23  2.300                                                                 
     0      7.6656591     23  2.300                                                                 
     3      9.5240782     23  2.300                                                                 
  local pseudopotential read in
  partial core-charges read in
  partial kinetic energy density read in
  atomic valenz-charges read in
  non local Contribution for L=           1  read in
    real space projection operators read in
  non local Contribution for L=           1  read in
    real space projection operators read in
  non local Contribution for L=           2  read in
    real space projection operators read in
  non local Contribution for L=           2  read in
    real space projection operators read in
  non local Contribution for L=           0  read in
    real space projection operators read in
  non local Contribution for L=           0  read in
    real space projection operators read in
    PAW grid and wavefunctions read in
 
   number of l-projection  operators is LMAX  =           6
   number of lm-projection operators is LMMAX =          18
 
 POTCAR:    PAW_PBE O 08Apr2002                   
   VRHFIN =O: s2p4                                                                                  
   LEXCH  = PE                                                                                      
   EATOM  =   432.3788 eV,   31.7789 Ry                                                             
                                                                                                    
   TITEL  = PAW_PBE O 08Apr2002                                                                     
   LULTRA =        F    use ultrasoft PP ?                                                          
   IUNSCR =        1    unscreen: 0-lin 1-nonlin 2-no                                               
   RPACOR =    1.200    partial core radius                                                         
   POMASS =   16.000; ZVAL   =    6.000    mass and valenz                                          
   RCORE  =    1.520    outmost cutoff radius                                                       
   RWIGS  =    1.550; RWIGS  =    0.820    wigner-seitz radius (au A)                               
   ENMAX  =  400.000; ENMIN  =  300.000 eV                                                          
   ICORE  =        2    local potential                                                             
   LCOR   =        T    correct aug charges                                                         
   LPAW   =        T    paw PP                                                                      
   EAUG   =  605.392                                                                                
   DEXC   =    0.000                                                                                
   RMAX   =    1.553    core radius for proj-oper                                                   
   RAUG   =    1.300    factor for augmentation sphere                                              
   RDEP   =    1.550    radius for radial grids                                                     
   RDEPT  =    1.329    core radius for aug-charge                                                  
                                                                                                    
   Atomic configuration                                                                             
    4 entries                                                                                       
     n  l   j            E        occ.                                                              
     1  0  0.50      -514.6923   2.0000                                                             
     2  0  0.50       -23.9615   2.0000                                                             
     2  1  0.50        -9.0305   4.0000                                                             
     3  2  1.50        -9.5241   0.0000                                                             
   Description                                                                                      
     l       E           TYP  RCUT    TYP  RCUT                                                     
     0    -23.9615318     23  1.200                                                                 
     0     -9.5240782     23  1.200                                                                 
     1     -9.0304911     23  1.520                                                                 
     1      8.1634956     23  1.520                                                                 
     2     -9.5240782      7  1.500                                                                 
  local pseudopotential read in
  partial core-charges read in
  partial kinetic energy density read in
  kinetic energy density of atom read in
  atomic valenz-charges read in
  non local Contribution for L=           0  read in
    real space projection operators read in
  non local Contribution for L=           0  read in
    real space projection operators read in
  non local Contribution for L=           1  read in
    real space projection operators read in
  non local Contribution for L=           1  read in
    real space projection operators read in
    PAW grid and wavefunctions read in
 
   number of l-projection  operators is LMAX  =           4
   number of lm-projection operators is LMMAX =           8
 
 Optimization of the real space projectors (new method)

 maximal supplied QI-value         = 17.01
 optimisation between [QCUT,QGAM] = [ 11.57, 23.30] = [ 37.45,152.03] Ry 
 Optimized for a Real-space Cutoff    1.45 Angstroem

   l    n(q)    QCUT    max X(q) W(low)/X(q) W(high)/X(q)  e(spline) 
   1     10    11.565     4.940    0.87E-04    0.13E-03    0.13E-06
   1     10    11.565     6.253    0.13E-03    0.19E-03    0.20E-06
   0     10    11.565    37.438    0.53E-04    0.73E-05    0.79E-07
   0     10    11.565     9.606    0.27E-04    0.60E-05    0.56E-07
 Optimization of the real space projectors (new method)

 maximal supplied QI-value         = 22.11
 optimisation between [QCUT,QGAM] = [ 11.50, 23.22] = [ 37.02,150.92] Ry 
 Optimized for a Real-space Cutoff    1.08 Angstroem

   l    n(q)    QCUT    max X(q) W(low)/X(q) W(high)/X(q)  e(spline) 
   0      7    11.497    10.506    0.36E-04    0.62E-04    0.14E-07
   0      7    11.497     8.367    0.65E-04    0.14E-03    0.28E-07
   1      7    11.497     8.983    0.21E-03    0.43E-03    0.90E-07
 Optimization of the real space projectors (new method)

 maximal supplied QI-value         = 16.25
 optimisation between [QCUT,QGAM] = [ 11.54, 23.24] = [ 37.28,151.24] Ry 
 Optimized for a Real-space Cutoff    1.45 Angstroem

   l    n(q)    QCUT    max X(q) W(low)/X(q) W(high)/X(q)  e(spline) 
   1     10    11.539     3.658    0.56E-04    0.12E-03    0.13E-06
   1     10    11.539     5.612    0.11E-03    0.23E-03    0.24E-06
   2      9    11.539    55.373    0.45E-04    0.92E-04    0.22E-06
   2      9    11.539    50.863    0.47E-04    0.95E-04    0.22E-06
   0     10    11.539    79.536    0.46E-04    0.27E-04    0.11E-06
   0     10    11.539    38.668    0.38E-04    0.25E-04    0.10E-06
 Optimization of the real space projectors (new method)

 maximal supplied QI-value         = 24.76
 optimisation between [QCUT,QGAM] = [ 11.64, 23.27] = [ 37.91,151.63] Ry 
 Optimized for a Real-space Cutoff    1.14 Angstroem

   l    n(q)    QCUT    max X(q) W(low)/X(q) W(high)/X(q)  e(spline) 
   0      8    11.635    20.381    0.10E-03    0.33E-03    0.24E-06
   0      8    11.635    15.268    0.11E-03    0.35E-03    0.26E-06
   1      7    11.635     5.964    0.24E-03    0.31E-03    0.30E-06
   1      7    11.635     5.382    0.22E-03    0.25E-03    0.26E-06
  PAW_PBE Na_pv 19Sep2006               :
 energy of atom  1       EATOM= -766.0439
 kinetic energy error for atom=    0.0019 (will be added to EATOM!!)
  PAW_PBE Li_sv 10Sep2004               :
 energy of atom  2       EATOM= -202.7858
 kinetic energy error for atom=    0.0130 (will be added to EATOM!!)
  PAW_PBE Mn_pv 02Aug2007               :
 energy of atom  3       EATOM=-2025.2664
 kinetic energy error for atom=    0.0058 (will be added to EATOM!!)
  PAW_PBE O 08Apr2002                   :
 energy of atom  4       EATOM= -432.3788
 kinetic energy error for atom=    0.0208 (will be added to EATOM!!)
 
 
 POSCAR: Na6 Li2 Mn6 O16
  positions in direct lattice
  velocities in cartesian coordinates
 exchange correlation table for  LEXCH =        8
   RHO(1)=    0.500       N(1)  =     2000
   RHO(2)=  100.500       N(2)  =     4000
 


--------------------------------------------------------------------------------------------------------


 ion  position               nearest neighbor table
   1  0.329  0.688  0.248-  17 2.31  23 2.35  20 2.36
   2  0.160  0.302  0.752-
   3  0.842  0.148  0.245-  20 2.35  23 2.37
   4  0.501  0.980  0.550-  12 1.82  14 1.82  13 1.82   8 2.84   6 2.84
   5  0.007  0.026  0.016-  21 1.91  20 1.93  23 1.96  26 2.06  24 2.11  27 2.22   9 2.76  11 2.79
                            10 2.85  10 2.85
   6  0.996  0.992  0.494-  14 1.85  12 1.86  17 1.91  19 1.91  15 1.92  16 1.96   7 2.83   4 2.84
                             8 2.87   8 2.88   7 2.88
   7  1.000  0.489  0.501-  13 1.83  14 1.83  17 1.91  15 1.91  18 1.92  16 1.93   8 2.81   6 2.83
                             8 2.87   6 2.88
   8  0.496  0.493  0.494-  13 1.84  12 1.85  19 1.90  15 1.92  18 1.93  16 1.95   7 2.81   4 2.84
                             6 2.87   7 2.87   6 2.88
   9  0.002  0.506  0.002-  20 1.86  26 1.87  21 1.87  27 1.90  25 1.91  22 1.93   5 2.76  11 2.81
                            10 2.87  10 2.87  11 2.88
  10  0.500  0.009  0.997-  21 1.87  24 1.88  23 1.88  26 1.90  22 1.94  25 1.94   5 2.85   5 2.85
                            11 2.86  11 2.86   9 2.87   9 2.87
  11  0.496  0.507  0.008-  20 1.86  24 1.87  23 1.88  25 1.91  27 1.91  22 1.93   5 2.79   9 2.81
                            10 2.86  10 2.86   9 2.88
  12  0.320  0.166  0.575-   4 1.82   8 1.85   6 1.86
  13  0.313  0.621  0.585-   4 1.82   7 1.83   8 1.84
  14  0.859  0.170  0.584-   4 1.82   7 1.83   6 1.85
  15  0.825  0.658  0.581-   7 1.91   8 1.92   6 1.92
  16  0.165  0.329  0.403-   7 1.93   8 1.95   6 1.96
  17  0.129  0.800  0.402-   7 1.91   6 1.91   1 2.31
  18  0.695  0.365  0.399-   7 1.92   8 1.93
  19  0.674  0.817  0.404-   8 1.90   6 1.91
  20  0.174  0.368  0.095-   9 1.86  11 1.86   5 1.93   3 2.35   1 2.36
  21  0.171  0.834  0.082-   9 1.87  10 1.87   5 1.91
  22  0.665  0.334  0.091-  11 1.93   9 1.93  10 1.94
  23  0.644  0.836  0.089-  11 1.88  10 1.88   5 1.96   1 2.35   3 2.37
  24  0.367  0.203  0.913-  11 1.87  10 1.88   5 2.11
  25  0.336  0.668  0.914-  11 1.91   9 1.91  10 1.94
  26  0.834  0.194  0.912-   9 1.87  10 1.90   5 2.06
  27  0.820  0.647  0.913-   9 1.90  11 1.91   5 2.22
 
  LATTYP: Found a triclinic cell.
 ALAT       =     5.6803382849
 B/A-ratio  =     1.0051121386
 C/A-ratio  =     1.9834885873
 COS(alpha) =     0.0004891562
 COS(beta)  =     0.0160394751
 COS(gamma) =     0.4911152612
  
  Lattice vectors:
  
 A1 = (   2.8581404516,   4.9086705115,   0.0472228776)
 A2 = (  -2.8869424724,   4.9257024680,   0.0019101298)
 A3 = (   0.0844931315,   0.0515403298,  11.2664514492)


Analysis of symmetry for initial positions (statically):
=====================================================================
 Subroutine PRICEL returns:
 Original cell was already a primitive cell.
 

 Routine SETGRP: Setting up the symmetry group for a 
 triclinic supercell.


 Subroutine GETGRP returns: Found  1 space group operations
 (whereof  1 operations were pure point group operations)
 out of a pool of  2 trial point group operations.


The static configuration has the point symmetry C_1 .


Analysis of symmetry for dynamics (positions and initial velocities):
=====================================================================
 Subroutine PRICEL returns:
 Original cell was already a primitive cell.
 

 Routine SETGRP: Setting up the symmetry group for a 
 triclinic supercell.


 Subroutine GETGRP returns: Found  1 space group operations
 (whereof  1 operations were pure point group operations)
 out of a pool of  2 trial point group operations.


The dynamic configuration has the point symmetry C_1 .


Analysis of structural, dynamic, and magnetic symmetry:
=====================================================================
 Subroutine PRICEL returns:
 Original cell was already a primitive cell.
 

 Routine SETGRP: Setting up the symmetry group for a 
 triclinic supercell.


 Subroutine GETGRP returns: Found  1 space group operations
 (whereof  1 operations were pure point group operations)
 out of a pool of  2 trial point group operations.


The overall configuration has the point symmetry C_1 .


 Subroutine INISYM returns: Found  1 space group operations
 (whereof  1 operations are pure point group operations),
 and found     1 'primitive' translations


----------------------------------------------------------------------------------------

                                     Primitive cell                                     

  volume of cell :     318.2443

  direct lattice vectors                    reciprocal lattice vectors
    -2.858140452 -4.908670511 -0.047222878    -0.174378888 -0.102203739  0.001775309
    -2.886942472  4.925702468  0.001910130    -0.173768586  0.101171048  0.000840359
    -0.084493131 -0.051540330-11.266451449     0.000701441  0.000445536 -0.088766391

  length of vectors
     5.680338285  5.709376962 11.266886160     0.202130534  0.201076624  0.088770280

  position of ions in fractional coordinates (direct lattice)
     0.329017816  0.688046568  0.248320408
     0.160464760  0.302210564  0.752082315
     0.841631736  0.148428039  0.244720142
     0.500729953  0.980100829  0.550444495
     0.007189105  0.025501085  0.016095940
     0.996211672  0.991647677  0.494410673
     0.999538273  0.489172186  0.501406668
     0.496462501  0.492840203  0.494016591
     0.002305105  0.505895871  0.002341554
     0.499806770  0.008682497  0.996711319
     0.496431783  0.507095035  0.008077487
     0.320065064  0.166332156  0.574559634
     0.312788808  0.621222458  0.585084997
     0.859352436  0.170184278  0.583782359
     0.824799358  0.658071008  0.581455869
     0.164793407  0.329277553  0.403326774
     0.128875171  0.799534690  0.401817411
     0.694946839  0.364916401  0.398965066
     0.673750430  0.817310763  0.403602403
     0.173558712  0.367767947  0.095316785
     0.171452036  0.834274827  0.082035178
     0.664754567  0.333873001  0.090952134
     0.644202865  0.836321771  0.089360948
     0.367254793  0.202714126  0.912658544
     0.336162335  0.667637447  0.913720723
     0.833930541  0.193633252  0.911998079
     0.819523163  0.647307768  0.912735505

  ion indices of the primitive-cell ions
   primitive index   ion index
                 1           1
                 2           2
                 3           3
                 4           4
                 5           5
                 6           6
                 7           7
                 8           8
                 9           9
                10          10
                11          11
                12          12
                13          13
                14          14
                15          15
                16          16
                17          17
                18          18
                19          19
                20          20
                21          21
                22          22
                23          23
                24          24
                25          25
                26          26
                27          27

----------------------------------------------------------------------------------------

 
 
 KPOINTS: pymatgen with grid density = 1046 / numb

Automatic generation of k-mesh.
 Grid dimensions read from file:
 generate k-points for:    4    4    2

 Generating k-lattice:

  Cartesian coordinates                     Fractional coordinates (reciprocal lattice)
    -0.043594722 -0.025550935  0.000443827     0.250000000 -0.000000000 -0.000000000
    -0.043442147  0.025292762  0.000210090     0.000000000  0.250000000 -0.000000000
     0.000350721  0.000222768 -0.044383195     0.000000000 -0.000000000  0.500000000

  Length of vectors
     0.050532633  0.050269156  0.044385140

  Shift w.r.t. Gamma in fractional coordinates (k-lattice)
     0.000000000  0.000000000  0.000000000

 TETIRR: Found     96 inequivalent tetrahedra from      192
 
 Subroutine IBZKPT returns following result:
 ===========================================
 
 Found     20 irreducible k-points:
 
 Following reciprocal coordinates:
            Coordinates               Weight
  0.000000  0.000000  0.000000      1.000000
  0.250000 -0.000000 -0.000000      2.000000
  0.500000 -0.000000  0.000000      1.000000
  0.000000  0.250000  0.000000      2.000000
  0.250000  0.250000 -0.000000      2.000000
  0.500000  0.250000  0.000000      2.000000
 -0.250000  0.250000 -0.000000      2.000000
 -0.000000  0.500000 -0.000000      1.000000
  0.250000  0.500000  0.000000      2.000000
  0.500000  0.500000 -0.000000      1.000000
  0.000000  0.000000  0.500000      1.000000
  0.250000 -0.000000  0.500000      2.000000
  0.500000 -0.000000  0.500000      1.000000
  0.000000  0.250000  0.500000      2.000000
  0.250000  0.250000  0.500000      2.000000
  0.500000  0.250000  0.500000      2.000000
 -0.250000  0.250000  0.500000      2.000000
 -0.000000  0.500000  0.500000      1.000000
  0.250000  0.500000  0.500000      2.000000
  0.500000  0.500000  0.500000      1.000000
 
 Following cartesian coordinates:
            Coordinates               Weight
  0.000000  0.000000  0.000000      1.000000
 -0.043595 -0.025551  0.000444      2.000000
 -0.087189 -0.051102  0.000888      1.000000
 -0.043442  0.025293  0.000210      2.000000
 -0.087037 -0.000258  0.000654      2.000000
 -0.130632 -0.025809  0.001098      2.000000
  0.000153  0.050844 -0.000234      2.000000
 -0.086884  0.050586  0.000420      1.000000
 -0.130479  0.025035  0.000864      2.000000
 -0.174074 -0.000516  0.001308      1.000000
  0.000351  0.000223 -0.044383      1.000000
 -0.043244 -0.025328 -0.043939      2.000000
 -0.086839 -0.050879 -0.043496      1.000000
 -0.043091  0.025516 -0.044173      2.000000
 -0.086686 -0.000035 -0.043729      2.000000
 -0.130281 -0.025586 -0.043285      2.000000
  0.000503  0.051066 -0.044617      2.000000
 -0.086534  0.050808 -0.043963      1.000000
 -0.130128  0.025257 -0.043519      2.000000
 -0.173723 -0.000294 -0.043075      1.000000
 
 
 Subroutine IBZKPT_HF returns following result:
 ==============================================
 
 Found     32 k-points in 1st BZ
 the following     32 k-points will be used (e.g. in the exchange kernel)
 Following reciprocal coordinates:   # in IRBZ
  0.000000  0.000000  0.000000    0.03125000   1 t-inv F
  0.250000 -0.000000 -0.000000    0.03125000   2 t-inv F
  0.500000 -0.000000  0.000000    0.03125000   3 t-inv F
  0.000000  0.250000  0.000000    0.03125000   4 t-inv F
  0.250000  0.250000 -0.000000    0.03125000   5 t-inv F
  0.500000  0.250000  0.000000    0.03125000   6 t-inv F
 -0.250000  0.250000 -0.000000    0.03125000   7 t-inv F
 -0.000000  0.500000 -0.000000    0.03125000   8 t-inv F
  0.250000  0.500000  0.000000    0.03125000   9 t-inv F
  0.500000  0.500000 -0.000000    0.03125000  10 t-inv F
  0.000000  0.000000  0.500000    0.03125000  11 t-inv F
  0.250000 -0.000000  0.500000    0.03125000  12 t-inv F
  0.500000 -0.000000  0.500000    0.03125000  13 t-inv F
  0.000000  0.250000  0.500000    0.03125000  14 t-inv F
  0.250000  0.250000  0.500000    0.03125000  15 t-inv F
  0.500000  0.250000  0.500000    0.03125000  16 t-inv F
 -0.250000  0.250000  0.500000    0.03125000  17 t-inv F
 -0.000000  0.500000  0.500000    0.03125000  18 t-inv F
  0.250000  0.500000  0.500000    0.03125000  19 t-inv F
  0.500000  0.500000  0.500000    0.03125000  20 t-inv F
 -0.250000  0.000000  0.000000    0.03125000   2 t-inv T
 -0.000000 -0.250000 -0.000000    0.03125000   4 t-inv T
 -0.250000 -0.250000  0.000000    0.03125000   5 t-inv T
 -0.500000 -0.250000 -0.000000    0.03125000   6 t-inv T
  0.250000 -0.250000  0.000000    0.03125000   7 t-inv T
 -0.250000 -0.500000 -0.000000    0.03125000   9 t-inv T
 -0.250000  0.000000 -0.500000    0.03125000  12 t-inv T
 -0.000000 -0.250000 -0.500000    0.03125000  14 t-inv T
 -0.250000 -0.250000 -0.500000    0.03125000  15 t-inv T
 -0.500000 -0.250000 -0.500000    0.03125000  16 t-inv T
  0.250000 -0.250000 -0.500000    0.03125000  17 t-inv T
 -0.250000 -0.500000 -0.500000    0.03125000  19 t-inv T


--------------------------------------------------------------------------------------------------------




 Dimension of arrays:
   k-points           NKPTS =     20   k-points in BZ     NKDIM =     32   number of bands    NBANDS=    256
   number of dos      NEDOS =  10000   number of ions     NIONS =     27
   non local maximal  LDIM  =      6   non local SUM 2l+1 LMDIM =     18
   total plane-waves  NPLWV = 148176
   max r-space proj   IRMAX =   5943   max aug-charges    IRDMAX=  14326
   dimension x,y,z NGX =    42 NGY =   42 NGZ =   84
   dimension x,y,z NGXF=    84 NGYF=   84 NGZF=  168
   support grid    NGXF=    84 NGYF=   84 NGZF=  168
   ions per type =               3   2   6  16
   NGX,Y,Z   is equivalent  to a cutoff of  12.29, 12.23, 12.39 a.u.
   NGXF,Y,Z  is equivalent  to a cutoff of  24.58, 24.46, 24.79 a.u.

 SYSTEM =  unknown system                          
 POSCAR =  Na6 Li2 Mn6 O16                         

 Startparameter for this run:
   NWRITE =      2    write-flag & timer
   PREC   = accura    normal or accurate (medium, high low for compatibility)
   ISTART =      1    job   : 0-new  1-cont  2-samecut
   ICHARG =      1    charge: 1-file 2-atom 10-const
   ISPIN  =      2    spin polarized calculation?
   LNONCOLLINEAR =      F non collinear calculations
   LSORBIT =      F    spin-orbit coupling
   INIWAV =      1    electr: 0-lowe 1-rand  2-diag
   LASPH  =      F    aspherical Exc in radial PAW
 Electronic Relaxation 1
   ENCUT  =  520.0 eV  38.22 Ry    6.18 a.u.  10.56 10.62 20.95*2*pi/ulx,y,z
   ENINI  =  520.0     initial cutoff
   ENAUG  =  628.9 eV  augmentation charge cutoff
   NELM   =    100;   NELMIN=  2; NELMDL=  0     # of ELM steps 
   EDIFF  = 0.1E-02   stopping-criterion for ELM
   LREAL  =      T    real-space projection
   NLSPLINE    = F    spline interpolate recip. space projectors
   LCOMPAT=      F    compatible to vasp.4.4
   GGA_COMPAT  = T    GGA compatible to vasp.4.4-vasp.4.6
   LMAXPAW     = -100 max onsite density
   LMAXMIX     =    4 max onsite mixed and CHGCAR
   VOSKOWN=      0    Vosko Wilk Nusair interpolation
   ROPT   =   -0.00025  -0.00025  -0.00025  -0.00025
 Ionic relaxation
   EDIFFG = 0.1E-01   stopping-criterion for IOM
   NSW    =      0    number of steps for IOM
   NBLOCK =      1;   KBLOCK =      1    inner block; outer block 
   IBRION =     -1    ionic relax: 0-MD 1-quasi-New 2-CG
   NFREE  =      0    steps in history (QN), initial steepest desc. (CG)
   ISIF   =      3    stress and relaxation
   IWAVPR =     10    prediction:  0-non 1-charg 2-wave 3-comb
   ISYM   =      3    0-nonsym 1-usesym 2-fastsym
   LCORR  =      T    Harris-Foulkes like correction to forces

   POTIM  = 0.5000    time-step for ionic-motion
   TEIN   =    0.0    initial temperature
   TEBEG  =    0.0;   TEEND  =   0.0 temperature during run
   SMASS  =  -3.00    Nose mass-parameter (am)
   estimated Nose-frequenzy (Omega)   =  0.10E-29 period in steps = 0.13E+47 mass=  -0.737E-27a.u.
   SCALEE = 1.0000    scale energy and forces
   NPACO  =    256;   APACO  = 10.0  distance and # of slots for P.C.
   PSTRESS=    0.0 pullay stress

  Mass of Ions in am
   POMASS =  22.99  7.01 54.94 16.00
  Ionic Valenz
   ZVAL   =   7.00  3.00 13.00  6.00
  Atomic Wigner-Seitz radii
   RWIGS  =  -1.00 -1.00 -1.00 -1.00
  virtual crystal weights 
   VCA    =   1.00  1.00  1.00  1.00
   NELECT =     201.0000    total number of electrons
   NUPDOWN=      -1.0000    fix difference up-down

 DOS related values:
   EMIN   =  10.00;   EMAX   =-10.00  energy-range for DOS
   EFERMI =   0.00;   METHOD = LEGACY      
   ISMEAR =    -5;   SIGMA  =   0.05  broadening in eV -4-tet -1-fermi 0-gaus

 Electronic relaxation 2 (details)
   IALGO  =     58    algorithm
   LDIAG  =      T    sub-space diagonalisation (order eigenvalues)
   LSUBROT=      F    optimize rotation matrix (better conditioning)
   TURBO    =      0    0=normal 1=particle mesh
   IRESTART =      0    0=no restart 2=restart with 2 vectors
   NREBOOT  =      0    no. of reboots
   NMIN     =      0    reboot dimension
   EREF     =   0.00    reference energy to select bands
   IMIX   =      4    mixing-type and parameters
     AMIX     =   0.40;   BMIX     =  1.00
     AMIX_MAG =   1.60;   BMIX_MAG =  1.00
     AMIN     =   0.10
     WC   =   100.;   INIMIX=   1;  MIXPRE=   1;  MAXMIX= -45

 Intra band minimization:
   WEIMIN = 0.0000     energy-eigenvalue tresh-hold
   EBREAK =  0.13E-05  absolut break condition
   DEPER  =   0.30     relativ break condition  

   TIME   =   0.40     timestep for ELM

  volume/ion in A,a.u.               =      11.79        79.54
  Fermi-wavevector in a.u.,A,eV,Ry     =   1.404602  2.654313 26.843029  1.972907
  Thomas-Fermi vector in A             =   2.527147
 
 Write flags
   LWAVE        =      F    write WAVECAR
   LDOWNSAMPLE  =      F    k-point downsampling of WAVECAR
   LCHARG       =      T    write CHGCAR
   LVTOT        =      F    write LOCPOT, total local potential
   LVHAR        =      F    write LOCPOT, Hartree potential only
   LELF         =      F    write electronic localiz. function (ELF)
   LORBIT       =     11    0 simple, 1 ext, 2 COOP (PROOUT), +10 PAW based schemes


 Dipole corrections
   LMONO  =      F    monopole corrections only (constant potential shift)
   LDIPOL =      F    correct potential (dipole corrections)
   IDIPOL =      0    1-x, 2-y, 3-z, 4-all directions 
   EPSILON=  1.0000000 bulk dielectric constant

 Exchange correlation treatment:
   GGA     =    --    GGA type
   LEXCH   =     8    internal setting for exchange type
   LIBXC   =     F    Libxc                    
   VOSKOWN =     0    Vosko Wilk Nusair interpolation
   EXXOEP  =     0    0=HF, 1=EXX-LHF (local Hartree Fock) 2=EXX OEP
   LHFCALC =     T    Hartree Fock is set to
   LSYMGRAD=     F    symmetrize gradient (conserves proper symmetry)
   PRECFOCK=fast      Normal, Fast or Accurate (Low or Medium for compatibility)
   LRHFCALC=     F    long range Hartree Fock
   LRSCOR  =     F    long range correlation only (use DFT for short range part)
   LTHOMAS =     F    Thomas Fermi screening in HF
   LMODELHF=     F    short range full HF, long range fraction AEXX
   FOCKCORR=     1    mode to apply convergence corrections
   LFOCKACE=     T    use Adeptively-Compressed-Exchange operator
   ENCUT4O =  -1.0   cutoff for four orbital integrals eV
   LMAXFOCK=     4    L truncation for augmentation on plane wave grid
   LMAXFOCKAE=  -1    L truncation for all-electron charge restoration on plane wave grid
   NMAXFOCKAE=   1    number of basis functions for all-electron charge restoration
   LFOCKAEDFT=     F  apply the AE augmentation even for DFT
   NKREDX  =     1    reduce k-point grid by
   NKREDY  =     1    reduce k-point grid by
   NKREDZ  =     1    reduce k-point grid by
   SHIFTRED=     F    shift reduced grid of Gamma
   HFKIDENT=     F    idential grid for each k-point
   ODDONLY =     F    use only odd q-grid points
   EVENONLY=     F    use only even q-grid points
   HFALPHA =   -1.0000 decay constant for conv. correction
   MCALPHA =    0.0000 extent of test-charge in conv. correction in multipole expansion
   AEXX    =    0.2500 exact exchange contribution
   HFSCREEN=    0.2000 screening length (either q_TF or 0.3 A-1)
   HFSCREENC=   0.2000 screening length for correlation (either q_TF or 0.3 A-1)
   HFRCUT  =    0.0000 spherical cutoff for potential kernel
   ALDAX   =    0.7500 LDA exchange part
   AGGAX   =    0.7500 GGA exchange part
   ALDAC   =    1.0000 LDA correlation
   AGGAC   =    1.0000 GGA correlation
   ENCUTFOCK=  -1.0 apply spherical cutoff to Coloumb kernel
   NBANDSGWLOW=     1    first orbital included in HF term
   NBLOCK_FOCK=    64    blocking factor in FOCK_ACC

 Linear response parameters
   LEPSILON=     F    determine dielectric tensor
   LRPA    =     F    only Hartree local field effects (RPA)
   LNABLA  =     F    use nabla operator in PAW spheres
   LVEL    =     F    velocity operator in full k-point grid
   CSHIFT  =0.1000    complex shift for real part using Kramers Kronig
   OMEGAMAX=  -1.0    maximum frequency
   DEG_THRESHOLD= 0.2000000E-02 threshold for treating states as degnerate
   RTIME   =   -0.100 relaxation time in fs
  (WPLASMAI=    0.000 imaginary part of plasma frequency in eV, 0.658/RTIME)
   DFIELD  = 0.0000000 0.0000000 0.0000000 field for delta impulse in time
 
  Optional k-point grid parameters
   LKPOINTS_OPT  =     F    use optional k-point grid
   KPOINTS_OPT_MODE=     1    mode for optional k-point grid
 
 Orbital magnetization related:
   ORBITALMAG=     F  switch on orbital magnetization
   LCHIMAG   =     F  perturbation theory with respect to B field
   DQ        =  0.001000  dq finite difference perturbation B field
   LLRAUG    =     F  two centre corrections for induced B field
   LBONE     =     F  B-component reconstruction in AE one-centre
   LVGVCALC  =     T  calculate vGv susceptibility
   LVGVAPPL  =     F  apply vGv susceptibility instead of pGv for G=0

 Random number generation:
   RANDOM_GENERATOR = DEFAULT
   PCG_SEED         = not used


--------------------------------------------------------------------------------------------------------


 Static calculation
 charge density and potential will be updated during run
 spin polarized calculation
 Conjugate gradient for all bands (Freysoldt, et al. PRB 79, 241103 (2009))
 preconditioned conjugated gradient                                        
 perform sub-space diagonalisation
    before iterative eigenvector-optimisation
 modified Broyden-mixing scheme, WC =      100.0
 initial mixing is a Kerker type mixing with AMIX =  0.4000 and BMIX =      1.0000
 Hartree-type preconditioning will be used
 using additional bands          155
 real space projection scheme for non local part
 use partial core corrections
 no Harris-corrections to forces 
 use gradient corrections 
 use of overlap-Matrix (Vanderbilt PP)
 Fermi weights with tetrahedron method with Bloechl corrections


--------------------------------------------------------------------------------------------------------


  energy-cutoff  :      520.00
  volume of cell :      318.24
      direct lattice vectors                 reciprocal lattice vectors
    -2.858140452 -4.908670511 -0.047222878    -0.174378888 -0.102203739  0.001775309
    -2.886942472  4.925702468  0.001910130    -0.173768586  0.101171048  0.000840359
    -0.084493131 -0.051540330-11.266451449     0.000701441  0.000445536 -0.088766391

  length of vectors
     5.680338285  5.709376962 11.266886160     0.202130534  0.201076624  0.088770280


 
 old parameters found on file WAVECAR:
  energy-cutoff  :      520.00
  volume of cell :      318.24
      direct lattice vectors                 reciprocal lattice vectors
    -2.858140452 -4.908670511 -0.047222878    -0.174378888 -0.102203739  0.001775309
    -2.886942472  4.925702468  0.001910130    -0.173768586  0.101171048  0.000840359
    -0.084493131 -0.051540330-11.266451449     0.000701441  0.000445536 -0.088766391

  length of vectors

 
 k-points in units of 2pi/SCALE and weight: pymatgen with grid density = 1046 / numb
   0.00000000  0.00000000  0.00000000       0.031
  -0.04359472 -0.02555093  0.00044383       0.062
  -0.08718944 -0.05110187  0.00088765       0.031
  -0.04344215  0.02529276  0.00021009       0.062
  -0.08703687 -0.00025817  0.00065392       0.062
  -0.13063159 -0.02580911  0.00109774       0.062
   0.00015258  0.05084370 -0.00023374       0.062
  -0.08688429  0.05058552  0.00042018       0.031
  -0.13047902  0.02503459  0.00086401       0.062
  -0.17407374 -0.00051635  0.00130783       0.031
   0.00035072  0.00022277 -0.04438320       0.031
  -0.04324400 -0.02532817 -0.04393937       0.062
  -0.08683872 -0.05087910 -0.04349554       0.031
  -0.04309143  0.02551553 -0.04417311       0.062
  -0.08668615 -0.00003540 -0.04372928       0.062
  -0.13028087 -0.02558634 -0.04328545       0.062
   0.00050330  0.05106646 -0.04461693       0.062
  -0.08653357  0.05080829 -0.04396302       0.031
  -0.13012829  0.02525736 -0.04351919       0.062
  -0.17372302 -0.00029358 -0.04307536       0.031
 
 k-points in reciprocal lattice and weights: pymatgen with grid density = 1046 / numb
   0.00000000  0.00000000  0.00000000       0.031
   0.25000000 -0.00000000 -0.00000000       0.062
   0.50000000 -0.00000000  0.00000000       0.031
   0.00000000  0.25000000  0.00000000       0.062
   0.25000000  0.25000000 -0.00000000       0.062
   0.50000000  0.25000000  0.00000000       0.062
  -0.25000000  0.25000000 -0.00000000       0.062
  -0.00000000  0.50000000 -0.00000000       0.031
   0.25000000  0.50000000  0.00000000       0.062
   0.50000000  0.50000000 -0.00000000       0.031
   0.00000000  0.00000000  0.50000000       0.031
   0.25000000 -0.00000000  0.50000000       0.062
   0.50000000 -0.00000000  0.50000000       0.031
   0.00000000  0.25000000  0.50000000       0.062
   0.25000000  0.25000000  0.50000000       0.062
   0.50000000  0.25000000  0.50000000       0.062
  -0.25000000  0.25000000  0.50000000       0.062
  -0.00000000  0.50000000  0.50000000       0.031
   0.25000000  0.50000000  0.50000000       0.062
   0.50000000  0.50000000  0.50000000       0.031
 
 position of ions in fractional coordinates (direct lattice) 
   0.32901782  0.68804657  0.24832041
   0.16046476  0.30221056  0.75208232
   0.84163174  0.14842804  0.24472014
   0.50072995  0.98010083  0.55044450
   0.00718910  0.02550109  0.01609594
   0.99621167  0.99164768  0.49441067
   0.99953827  0.48917219  0.50140667
   0.49646250  0.49284020  0.49401659
   0.00230510  0.50589587  0.00234155
   0.49980677  0.00868250  0.99671132
   0.49643178  0.50709503  0.00807749
   0.32006506  0.16633216  0.57455963
   0.31278881  0.62122246  0.58508500
   0.85935244  0.17018428  0.58378236
   0.82479936  0.65807101  0.58145587
   0.16479341  0.32927755  0.40332677
   0.12887517  0.79953469  0.40181741
   0.69494684  0.36491640  0.39896507
   0.67375043  0.81731076  0.40360240
   0.17355871  0.36776795  0.09531678
   0.17145204  0.83427483  0.08203518
   0.66475457  0.33387300  0.09095213
   0.64420287  0.83632177  0.08936095
   0.36725479  0.20271413  0.91265854
   0.33616234  0.66763745  0.91372072
   0.83393054  0.19363325  0.91199808
   0.81952316  0.64730777  0.91273551
 
 position of ions in cartesian coordinates  (Angst):
  -2.94771136  1.76127411 -2.81191273
  -1.39464113  0.66216811 -8.48029923
  -2.85468209 -3.41279348 -2.79658835
  -4.30716003  2.34139663 -6.22332997
  -0.09552763  0.08949222 -0.18163491
  -5.75191698 -0.03099553 -5.61540365
  -4.31139815 -2.52273007 -5.69534057
  -2.88350188 -0.03484842 -5.58831694
  -1.46727844  2.48045686 -0.02552353
  -1.53779908 -2.46199019-11.25298541
  -2.88350845  0.06056290 -0.11347893
  -1.44352862 -0.78140422 -6.48804490
  -2.73686351  1.49442432 -6.60541589
  -2.99678778 -3.41008918 -6.61741162
  -4.30633458 -0.83717473 -6.58863672
  -1.45568640  0.79221912 -4.55121457
  -2.71050480  3.28495444 -4.53161499
  -3.07345814 -1.63435823 -4.52704089
  -4.31930414  0.69780897 -4.57742215
  -1.56583369  0.95466030 -1.08137538
  -2.90546884  3.26355990 -0.93074824
  -2.87151890 -1.62318978 -1.05546169
  -4.26318550  0.95268691 -1.03560441
  -1.71200318 -0.85126202-10.29937880
  -2.96543319  1.59137981-10.30898945
  -3.01955625 -3.18671515-10.31399281
  -4.28817247 -0.88136640-10.32075405
 


--------------------------------------------------------------------------------------------------------


 k-point   1 :   0.0000 0.0000 0.0000  plane waves:    8585
 k-point   2 :   0.2500-0.0000-0.0000  plane waves:    8571
 k-point   3 :   0.5000-0.0000 0.0000  plane waves:    8546
 k-point   4 :   0.0000 0.2500 0.0000  plane waves:    8580
 k-point   5 :   0.2500 0.2500-0.0000  plane waves:    8570
 k-point   6 :   0.5000 0.2500 0.0000  plane waves:    8555
 k-point   7 :  -0.2500 0.2500-0.0000  plane waves:    8576
 k-point   8 :  -0.0000 0.5000-0.0000  plane waves:    8560
 k-point   9 :   0.2500 0.5000 0.0000  plane waves:    8552
 k-point  10 :   0.5000 0.5000-0.0000  plane waves:    8546
 k-point  11 :   0.0000 0.0000 0.5000  plane waves:    8594
 k-point  12 :   0.2500-0.0000 0.5000  plane waves:    8576
 k-point  13 :   0.5000-0.0000 0.5000  plane waves:    8564
 k-point  14 :   0.0000 0.2500 0.5000  plane waves:    8567
 k-point  15 :   0.2500 0.2500 0.5000  plane waves:    8579
 k-point  16 :   0.5000 0.2500 0.5000  plane waves:    8558
 k-point  17 :  -0.2500 0.2500 0.5000  plane waves:    8581
 k-point  18 :  -0.0000 0.5000 0.5000  plane waves:    8568
 k-point  19 :   0.2500 0.5000 0.5000  plane waves:    8577
 k-point  20 :   0.5000 0.5000 0.5000  plane waves:    8564

 maximum and minimum number of plane-waves per node :      8594     8546

 maximum number of plane-waves:      8594
 maximum index in each direction: 
   IXMAX=   10   IYMAX=   10   IZMAX=   20
   IXMIN=  -11   IYMIN=  -11   IZMIN=  -21


 serial   3D FFT for wavefunctions
 parallel 3D FFT for charge:
    minimum data exchange during FFTs selected (reduces bandwidth)


 FFT grid for exact exchange (Hartree Fock) 
  NGX = 24; NGY = 24; NGZ = 48

 
 Radii for the augmentation spheres in the non-local exchange
 for species   1 augmentation radius   1.249 (default was   0.925)
       energy cutoff for augmentation   2080.0
 for species   2 augmentation radius   0.956 (default was   0.708)
       energy cutoff for augmentation   2080.0
 for species   3 augmentation radius   1.293 (default was   0.958)
       energy cutoff for augmentation   2080.0
 for species   4 augmentation radius   0.974 (default was   0.722)
       energy cutoff for augmentation   2080.0
 Maximum index for augmentation-charges in exchange          792
  SETUP_FOCK is finished

 total amount of memory used by VASP MPI-rank0    95176. kBytes
=======================================================================

   base      :      30000. kBytes
   nonlr-proj:      14813. kBytes
   fftplans  :       1091. kBytes
   grid      :      13278. kBytes
   one-center:        839. kBytes
   HF        :        259. kBytes
   wavefun   :      34896. kBytes
 
     INWAV:  cpu time      5.3291: real time      5.4185
 Broyden mixing: mesh for mixing (old mesh)
   NGX = 21   NGY = 21   NGZ = 41
  (NGX  = 84   NGY  = 84   NGZ  =168)
  gives a total of  18081 points

 initial charge density was supplied:
 charge density of overlapping atoms calculated
 number of electron     201.0000000 magnetization      30.6000000
 charge density for first step will be calculated from the start-wavefunctions


--------------------------------------------------------------------------------------------------------


 Maximum index for non-local projection operator         5732
 BZINTS: Fermi energy:    1.046837;  201.000000 electrons
         Band energy:-0.333203E+04;  BLOECHL correction:   -0.025427
 Maximum index for augmentation-charges          636 (set IRDMAX)


--------------------------------------------------------------------------------------------------------


 initial charge from wavefunction
 First call to EWALD:  gamma=   0.260
 Maximum number of real-space cells 4x 4x 2
 Maximum number of reciprocal cells 2x 2x 4

    FEWALD:  cpu time      0.0061: real time      0.0061


--------------------------------------- Ionic step        1  -------------------------------------------


 -----------------------------------------------------------------------------
|                                                                             |
|           W    W    AA    RRRRR   N    N  II  N    N   GGGG   !!!           |
|           W    W   A  A   R    R  NN   N  II  NN   N  G    G  !!!           |
|           W    W  A    A  R    R  N N  N  II  N N  N  G       !!!           |
|           W WW W  AAAAAA  RRRRR   N  N N  II  N  N N  G  GGG   !            |
|           WW  WW  A    A  R   R   N   NN  II  N   NN  G    G                |
|           W    W  A    A  R    R  N    N  II  N    N   GGGG   !!!           |
|                                                                             |
|     ALGO=A and IALGO=5X tend to fail with the tetrahedron method (e.g.      |
|     Bloechl's method, ISMEAR=-5, is not variational). Please switch to      |
|     IMSEAR=0-n, except for DOS calculations. For DOS calculations use       |
|     IALGO=53 after pre-converging with ISMEAR>=0.                           |
|     I HOPE YOU KNOW WHAT YOU ARE DOING!                                     |
|                                                                             |
 -----------------------------------------------------------------------------



--------------------------------------- Iteration      1(   1)  ---------------------------------------


    POTLOK:  cpu time      0.0833: real time      0.0840
    SETDIJ:  cpu time      0.0672: real time      0.0675
    TRIAL :  cpu time    419.3248: real time    421.1589
 BZINTS: Fermi energy:    1.024216;  201.000000 electrons
         Band energy:-0.333217E+04;  BLOECHL correction:   -0.027963
 BZINTS: Fermi energy:    1.035310;  201.000000 electrons
         Band energy:-0.333210E+04;  BLOECHL correction:   -0.027296
    CORREC:  cpu time    415.3643: real time    417.1186
    CHARGE:  cpu time      0.1769: real time      0.1773
    --------------------------------------------
      LOOP:  cpu time    835.0486: real time    838.6387

 eigenvalue-minimisations  :     0
 total energy-change (2. order) :-0.2394221E+03  (-0.3701820E-01)
 number of electron     201.0000028 magnetization      20.9999998
 augmentation part       68.0457857 magnetization      13.8188839

 Free energy of the ion-electron system (eV)
  ---------------------------------------------------
  alpha Z        PSCENC =       677.77155732
  Ewald energy   TEWEN  =    -10606.81876138
  -Hartree energ DENC   =     -9448.15792555
  -exchange      EXHF   =       613.05238594
  -V(xc)+E(xc)   XCENC  =       736.01339291
  PAW double counting   =     23119.34259903   -23686.32824209
  entropy T*S    EENTRO =         0.00000000
  eigenvalues    EBANDS =     -3332.78058197
  atomic energy  EATOM  =     21688.48351686
  ---------------------------------------------------
  free energy    TOTEN  =      -239.42205894 eV

  energy without entropy =     -239.42205894  energy(sigma->0) =     -239.42205894
  exchange ACFDT corr.  =        -0.00800430  see jH, gK, PRB 81, 115126


--------------------------------------------------------------------------------------------------------




--------------------------------------- Iteration      1(   2)  ---------------------------------------


    POTLOK:  cpu time      0.0547: real time      0.0549
    SETDIJ:  cpu time      0.0667: real time      0.0669
    TRIAL :  cpu time    418.9578: real time    421.4955
 BZINTS: Fermi energy:    1.036924;  201.000000 electrons
         Band energy:-0.333203E+04;  BLOECHL correction:   -0.027057
 BZINTS: Fermi energy:    1.036394;  201.000000 electrons
         Band energy:-0.333205E+04;  BLOECHL correction:   -0.027138
    CORREC:  cpu time    416.6334: real time    418.3004
    CHARGE:  cpu time      0.1682: real time      0.1688
    --------------------------------------------
      LOOP:  cpu time    835.8818: real time    840.0876

 eigenvalue-minimisations  :     0
 total energy-change (2. order) :-0.3429699E-01  (-0.8124884E-03)
 number of electron     201.0000028 magnetization      20.9999998
 augmentation part       68.0464693 magnetization      13.8193942

 Free energy of the ion-electron system (eV)
  ---------------------------------------------------
  alpha Z        PSCENC =       677.77155732
  Ewald energy   TEWEN  =    -10606.81876138
  -Hartree energ DENC   =     -9449.27190852
  -exchange      EXHF   =       613.00779069
  -V(xc)+E(xc)   XCENC  =       736.00840069
  PAW double counting   =     23120.23832492   -23687.25268597
  entropy T*S    EENTRO =         0.00000000
  eigenvalues    EBANDS =     -3331.62259054
  atomic energy  EATOM  =     21688.48351686
  ---------------------------------------------------
  free energy    TOTEN  =      -239.45635592 eV

  energy without entropy =     -239.45635592  energy(sigma->0) =     -239.45635592
  exchange ACFDT corr.  =        -0.13004471  see jH, gK, PRB 81, 115126


--------------------------------------------------------------------------------------------------------




--------------------------------------- Iteration      1(   3)  ---------------------------------------


    POTLOK:  cpu time      0.0542: real time      0.0544
    SETDIJ:  cpu time      0.0662: real time      0.0665
    TRIAL :  cpu time    417.9376: real time    419.3450
 BZINTS: Fermi energy:    1.035947;  201.000000 electrons
         Band energy:-0.333202E+04;  BLOECHL correction:   -0.027179
 BZINTS: Fermi energy:    1.034725;  201.000000 electrons
         Band energy:-0.333193E+04;  BLOECHL correction:   -0.027242
 BZINTS: Fermi energy:    1.033905;  201.000000 electrons
         Band energy:-0.333187E+04;  BLOECHL correction:   -0.027244
 BZINTS: Fermi energy:    1.033047;  201.000000 electrons
         Band energy:-0.333182E+04;  BLOECHL correction:   -0.027230
 BZINTS: Fermi energy:    1.033047;  201.000000 electrons
         Band energy:-0.333182E+04;  BLOECHL correction:   -0.027230
    CORREC:  cpu time   1663.2397: real time   1669.5603
    EDDIAG:  cpu time    413.5518: real time    414.8837
    CHARGE:  cpu time      0.1740: real time      0.1747
    --------------------------------------------
      LOOP:  cpu time   2495.0243: real time   2504.0853

 eigenvalue-minimisations  :     0
 total energy-change (2. order) :-0.8746275E-03  (-0.1028461E-02)
 number of electron     201.0000028 magnetization      20.9999998
 augmentation part       68.0521635 magnetization      13.8235130

 Free energy of the ion-electron system (eV)
  ---------------------------------------------------
  alpha Z        PSCENC =       677.77155732
  Ewald energy   TEWEN  =    -10606.81876138
  -Hartree energ DENC   =     -9449.03280279
  -exchange      EXHF   =       613.02936814
  -V(xc)+E(xc)   XCENC  =       736.01253995
  PAW double counting   =     23120.49701267   -23687.52086082
  entropy T*S    EENTRO =         0.00000000
  eigenvalues    EBANDS =     -3331.86408017
  atomic energy  EATOM  =     21688.48351686
  ---------------------------------------------------
  free energy    TOTEN  =      -239.45723055 eV

  energy without entropy =     -239.45723055  energy(sigma->0) =     -239.45723055
  exchange ACFDT corr.  =        -0.01208230  see jH, gK, PRB 81, 115126


--------------------------------------------------------------------------------------------------------


  average scaling for gradient   1.0040


 average (electrostatic) potential at core
  the test charge radii are     0.9254  0.7079  0.9577  0.7215
  (the norm of the test charge is              1.0000)
       1 -39.4401       2 -38.8124       3 -39.7046       4 -54.2424       5 -54.3427
       6 -67.7911       7 -67.7101       8 -67.7826       9 -67.5016      10 -67.5895
      11 -67.6339      12 -66.2180      13 -66.2798      14 -66.3576      15 -66.9495
      16 -67.0507      17 -67.0185      18 -67.5868      19 -66.7655      20 -66.2182
      21 -66.2411      22 -66.8095      23 -66.3098      24 -66.3581      25 -66.7718
      26 -66.2311      27 -67.5663
 
 
 
 E-fermi :   1.0330     XC(G=0):  -8.0054     alpha+bet :-10.2341

 Fermi energy:         1.0330466724

 spin component 1

 k-point     1 :       0.0000    0.0000    0.0000
  band No.  band energies     occupation 
      1     -53.8024      1.00000
      2     -53.7293      1.00000
      3     -53.6751      1.00000
      4     -53.6468      1.00000
      5     -53.6417      1.00000
      6     -53.6210      1.00000
      7     -53.6139      1.00000
      8     -53.5867      1.00000
      9     -53.5427      1.00000
     10     -53.5325      1.00000
     11     -53.5062      1.00000
     12     -53.5012      1.00000
     13     -53.4694      1.00000
     14     -53.4520      1.00000
     15     -53.4216      1.00000
     16     -53.4074      1.00000
     17     -53.3473      1.00000
     18     -53.2878      1.00000
     19     -44.6125      1.00000
     20     -44.5245      1.00000
     21     -23.2889      1.00000
     22     -23.1956      1.00000
     23     -23.1809      1.00000
     24     -22.9623      1.00000
     25     -22.9248      1.00000
     26     -22.9214      1.00000
     27     -22.3213      1.00000
     28     -22.3053      1.00000
     29     -22.3011      1.00000
     30     -20.2376      1.00000
     31     -20.0583      1.00000
     32     -19.1607      1.00000
     33     -19.0503      1.00000
     34     -18.7627      1.00000
     35     -18.5378      1.00000
     36     -18.4090      1.00000
     37     -18.2908      1.00000
     38     -18.2448      1.00000
     39     -18.1823      1.00000
     40     -18.1184      1.00000
     41     -18.0347      1.00000
     42     -17.9702      1.00000
     43     -17.9463      1.00000
     44     -17.9202      1.00000
     45     -17.8229      1.00000
     46      -7.0453      1.00000
     47      -6.8215      1.00000
     48      -6.3610      1.00000
     49      -6.3127      1.00000
     50      -6.2300      1.00000
     51      -6.1919      1.00000
     52      -6.1280      1.00000
     53      -5.9888      1.00000
     54      -5.3293      1.00000
     55      -5.1896      1.00000
     56      -5.0841      1.00000
     57      -4.9874      1.00000
     58      -4.9200      1.00000
     59      -4.7476      1.00000
     60      -4.4215      1.00000
     61      -4.3477      1.00000
     62      -4.3231      1.00000
     63      -4.2588      1.00000
     64      -4.1764      1.00000
     65      -4.1352      1.00000
     66      -4.1286      1.00000
     67      -4.0001      1.00000
     68      -3.9789      1.00000
     69      -3.9290      1.00000
     70      -3.8924      1.00000
     71      -3.8687      1.00000
     72      -3.7563      1.00000
     73      -3.6928      1.00000
     74      -2.9063      1.00000
     75      -2.7845      1.00000
     76      -2.7536      1.00000
     77      -2.6418      1.00000
     78      -2.5982      1.00000
     79      -2.5756      1.00000
     80      -2.5037      1.00000
     81      -2.4167      1.00000
     82      -2.3894      1.00000
     83      -2.3372      1.00000
     84      -2.2641      1.00000
     85      -2.1632      1.00000
     86      -2.1401      1.00000
     87      -1.9429      1.00000
     88      -1.9032      1.00000
     89      -1.8075      1.00000
     90      -1.7778      1.00000
     91      -1.7134      1.00000
     92      -1.6622      1.00000
     93      -1.6345      1.00000
     94      -1.5021      1.00000
     95      -1.4469      1.00000
     96      -1.3732      1.00000
     97      -1.3635      1.00000
     98      -1.1633      1.00000
     99      -0.9707      1.00000
    100      -0.9293      1.00000
    101      -0.7984      1.00000
    102      -0.7170      1.00000
    103      -0.6740      1.00000
    104      -0.5963      1.00000
    105      -0.5335      1.00000
    106      -0.4160      1.00000
    107      -0.2816      1.00000
    108      -0.2101      1.00000
    109      -0.1248      1.00000
    110      -0.0366      1.00000
    111       0.0166      1.00000
    112       4.0991      0.00000
    113       4.4278      0.00000
    114       4.4630      0.00000
    115       4.5752      0.00000
    116       4.7348      0.00000
    117       4.8833      0.00000
    118       4.9923      0.00000
    119       5.0439      0.00000
    120       5.1602      0.00000
    121       5.2453      0.00000
    122       5.3029      0.00000
    123       5.5216      0.00000
    124       7.9882      0.00000
    125       9.2714      0.00000
    126      11.1292      0.00000
    127      11.5574      0.00000
    128      11.9507      0.00000
    129      12.2597      0.00000
    130      12.4913      0.00000
    131      12.6065      0.00000
    132      12.9044      0.00000
    133      13.0352      0.00000
    134      13.3091      0.00000
    135      13.4534      0.00000
    136      13.7139      0.00000
    137      13.8343      0.00000
    138      13.9424      0.00000
    139      14.1074      0.00000
    140      14.2274      0.00000
    141      14.2825      0.00000
    142      14.4019      0.00000
    143      14.7319      0.00000
    144      15.2236      0.00000
    145      15.8114      0.00000
    146      16.3303      0.00000
    147      16.5693      0.00000
    148      16.8316      0.00000
    149      16.9345      0.00000
    150      17.1472      0.00000
    151      17.3077      0.00000
    152      17.3618      0.00000
    153      17.6247      0.00000
    154      17.7063      0.00000
    155      17.7412      0.00000
    156      18.2217      0.00000
    157      18.2461      0.00000
    158      18.4089      0.00000
    159      18.5961      0.00000
    160      18.6015      0.00000
    161      18.7514      0.00000
    162      18.9578      0.00000
    163      19.2203      0.00000
    164      19.2234      0.00000
    165      19.4748      0.00000
    166      19.9699      0.00000
    167      20.1001      0.00000
    168      20.2254      0.00000
    169      20.3315      0.00000
    170      20.5371      0.00000
    171      20.6393      0.00000
    172      21.0098      0.00000
    173      21.2821      0.00000
    174      21.6211      0.00000
    175      21.9315      0.00000
    176      22.1128      0.00000
    177      22.3351      0.00000
    178      22.6809      0.00000
    179      22.8053      0.00000
    180      22.8570      0.00000
    181      23.1644      0.00000
    182      23.2791      0.00000
    183      23.3640      0.00000
    184      23.6162      0.00000
    185      23.8001      0.00000
    186      23.8683      0.00000
    187      24.0160      0.00000
    188      24.0958      0.00000
    189      24.1937      0.00000
    190      24.3753      0.00000
    191      24.5584      0.00000
    192      24.6574      0.00000
    193      24.8012      0.00000
    194      24.8483      0.00000
    195      24.9351      0.00000
    196      25.0290      0.00000
    197      25.2155      0.00000
    198      25.2874      0.00000
    199      25.5912      0.00000
    200      25.6265      0.00000
    201      25.7881      0.00000
    202      25.8846      0.00000
    203      25.9629      0.00000
    204      26.3110      0.00000
    205      26.3345      0.00000
    206      26.4114      0.00000
    207      26.7468      0.00000
    208      27.0722      0.00000
    209      27.2200      0.00000
    210      27.2582      0.00000
    211      27.3402      0.00000
    212      27.4809      0.00000
    213      27.6935      0.00000
    214      27.8556      0.00000
    215      27.9992      0.00000
    216      28.2048      0.00000
    217      28.3382      0.00000
    218      28.7111      0.00000
    219      28.8271      0.00000
    220      29.0664      0.00000
    221      29.2036      0.00000
    222      29.4293      0.00000
    223      29.5996      0.00000
    224      29.7956      0.00000
    225      30.0005      0.00000
    226      30.3409      0.00000
    227      30.5477      0.00000
    228      30.6594      0.00000
    229      30.7296      0.00000
    230      30.8516      0.00000
    231      30.9696      0.00000
    232      31.2972      0.00000
    233      31.4085      0.00000
    234      31.6395      0.00000
    235      31.6896      0.00000
    236      31.7888      0.00000
    237      32.1107      0.00000
    238      32.2641      0.00000
    239      32.5884      0.00000
    240      32.8503      0.00000
    241      32.9653      0.00000
    242      33.2243      0.00000
    243      33.3423      0.00000
    244      33.6869      0.00000
    245      33.8710      0.00000
    246      34.1068      0.00000
    247      34.2859      0.00000
    248      34.5053      0.00000
    249      34.6296      0.00000
    250      34.6723      0.00000
    251      34.7993      0.00000
    252      34.9051      0.00000
    253      34.9971      0.00000
    254      35.0885      0.00000
    255      35.2107      0.00000
    256      35.4695      0.00000

 k-point     2 :       0.2500   -0.0000   -0.0000
  band No.  band energies     occupation 
      1     -53.7889      1.00000
      2     -53.7336      1.00000
      3     -53.6692      1.00000
      4     -53.6437      1.00000
      5     -53.6408      1.00000
      6     -53.6176      1.00000
      7     -53.6129      1.00000
      8     -53.5965      1.00000
      9     -53.5409      1.00000
     10     -53.5376      1.00000
     11     -53.5072      1.00000
     12     -53.4962      1.00000
     13     -53.4684      1.00000
     14     -53.4512      1.00000
     15     -53.4291      1.00000
     16     -53.4072      1.00000
     17     -53.3526      1.00000
     18     -53.2923      1.00000
     19     -44.6124      1.00000
     20     -44.5244      1.00000
     21     -23.2706      1.00000
     22     -23.1932      1.00000
     23     -23.1803      1.00000
     24     -22.9824      1.00000
     25     -22.9269      1.00000
     26     -22.9214      1.00000
     27     -22.3209      1.00000
     28     -22.3050      1.00000
     29     -22.3013      1.00000
     30     -20.1032      1.00000
     31     -19.9327      1.00000
     32     -19.2248      1.00000
     33     -19.0853      1.00000
     34     -18.8012      1.00000
     35     -18.6118      1.00000
     36     -18.4787      1.00000
     37     -18.3985      1.00000
     38     -18.2022      1.00000
     39     -18.1780      1.00000
     40     -18.1168      1.00000
     41     -18.0469      1.00000
     42     -17.9754      1.00000
     43     -17.9669      1.00000
     44     -17.8846      1.00000
     45     -17.8321      1.00000
     46      -6.7965      1.00000
     47      -6.5667      1.00000
     48      -6.1661      1.00000
     49      -6.0540      1.00000
     50      -6.0226      1.00000
     51      -5.9719      1.00000
     52      -5.8800      1.00000
     53      -5.7665      1.00000
     54      -5.2721      1.00000
     55      -5.1992      1.00000
     56      -5.1078      1.00000
     57      -5.0261      1.00000
     58      -4.9520      1.00000
     59      -4.8589      1.00000
     60      -4.8068      1.00000
     61      -4.6224      1.00000
     62      -4.6055      1.00000
     63      -4.5325      1.00000
     64      -4.4125      1.00000
     65      -4.3942      1.00000
     66      -4.2653      1.00000
     67      -4.2288      1.00000
     68      -4.2080      1.00000
     69      -4.1097      1.00000
     70      -3.8339      1.00000
     71      -3.6428      1.00000
     72      -3.5774      1.00000
     73      -3.3981      1.00000
     74      -3.1817      1.00000
     75      -2.9841      1.00000
     76      -2.9487      1.00000
     77      -2.8130      1.00000
     78      -2.7456      1.00000
     79      -2.7134      1.00000
     80      -2.6056      1.00000
     81      -2.5535      1.00000
     82      -2.4364      1.00000
     83      -2.3769      1.00000
     84      -2.2476      1.00000
     85      -2.2358      1.00000
     86      -2.1698      1.00000
     87      -2.0554      1.00000
     88      -1.7421      1.00000
     89      -1.7180      1.00000
     90      -1.5755      1.00000
     91      -1.4970      1.00000
     92      -1.4414      1.00000
     93      -1.3859      1.00000
     94      -1.3209      1.00000
     95      -1.1994      1.00000
     96      -1.1349      1.00000
     97      -1.0870      1.00000
     98      -1.0227      1.00000
     99      -0.9722      1.00000
    100      -0.8469      1.00000
    101      -0.7269      1.00000
    102      -0.6597      1.00000
    103      -0.6226      1.00000
    104      -0.5399      1.00000
    105      -0.4658      1.00000
    106      -0.4009      1.00000
    107      -0.3646      1.00000
    108      -0.2455      1.00000
    109      -0.2216      1.00000
    110      -0.1959      1.00000
    111       0.0143      1.00000
    112       3.9364      0.00000
    113       4.2437      0.00000
    114       4.3080      0.00000
    115       4.4675      0.00000
    116       4.5814      0.00000
    117       4.6288      0.00000
    118       4.6969      0.00000
    119       4.7696      0.00000
    120       4.8786      0.00000
    121       5.1822      0.00000
    122       5.2073      0.00000
    123       5.3416      0.00000
    124       8.5197      0.00000
    125       9.6320      0.00000
    126      10.8592      0.00000
    127      11.6475      0.00000
    128      11.8066      0.00000
    129      11.8956      0.00000
    130      12.0516      0.00000
    131      12.6337      0.00000
    132      12.9073      0.00000
    133      13.1767      0.00000
    134      13.6020      0.00000
    135      14.0634      0.00000
    136      14.1273      0.00000
    137      14.2867      0.00000
    138      14.5171      0.00000
    139      14.6150      0.00000
    140      14.8268      0.00000
    141      14.9885      0.00000
    142      15.2460      0.00000
    143      15.5971      0.00000
    144      15.9750      0.00000
    145      16.2490      0.00000
    146      16.3002      0.00000
    147      16.7405      0.00000
    148      16.9037      0.00000
    149      17.0895      0.00000
    150      17.1305      0.00000
    151      17.4030      0.00000
    152      17.4270      0.00000
    153      17.5937      0.00000
    154      17.7326      0.00000
    155      17.9037      0.00000
    156      17.9893      0.00000
    157      18.1644      0.00000
    158      18.4292      0.00000
    159      18.5962      0.00000
    160      18.7698      0.00000
    161      18.8223      0.00000
    162      18.9404      0.00000
    163      19.1002      0.00000
    164      19.2552      0.00000
    165      19.3751      0.00000
    166      19.5318      0.00000
    167      19.6960      0.00000
    168      19.9093      0.00000
    169      20.0338      0.00000
    170      20.2335      0.00000
    171      20.3416      0.00000
    172      20.7627      0.00000
    173      20.8927      0.00000
    174      21.1467      0.00000
    175      21.2488      0.00000
    176      21.5474      0.00000
    177      21.7120      0.00000
    178      21.7285      0.00000
    179      21.8715      0.00000
    180      22.1098      0.00000
    181      22.2475      0.00000
    182      22.4784      0.00000
    183      22.6719      0.00000
    184      22.8204      0.00000
    185      23.0574      0.00000
    186      23.3678      0.00000
    187      23.6455      0.00000
    188      23.7950      0.00000
    189      24.0072      0.00000
    190      24.2628      0.00000
    191      24.4431      0.00000
    192      24.5457      0.00000
    193      24.7255      0.00000
    194      24.8863      0.00000
    195      25.0414      0.00000
    196      25.1568      0.00000
    197      25.3905      0.00000
    198      25.7472      0.00000
    199      25.9107      0.00000
    200      25.9370      0.00000
    201      26.0946      0.00000
    202      26.2297      0.00000
    203      26.3661      0.00000
    204      26.5420      0.00000
    205      26.7043      0.00000
    206      26.7920      0.00000
    207      27.0330      0.00000
    208      27.0611      0.00000
    209      27.2005      0.00000
    210      27.3176      0.00000
    211      27.5019      0.00000
    212      27.6501      0.00000
    213      27.7046      0.00000
    214      27.7839      0.00000
    215      28.1037      0.00000
    216      28.2501      0.00000
    217      28.5294      0.00000
[...]
    239      33.4100      0.00000
    240      33.6320      0.00000
    241      33.7041      0.00000
    242      33.8726      0.00000
    243      34.0268      0.00000
    244      34.2962      0.00000
    245      34.3604      0.00000
    246      34.6153      0.00000
    247      34.6757      0.00000
    248      34.8184      0.00000
    249      35.0370      0.00000
    250      35.1581      0.00000
    251      35.2179      0.00000
    252      35.4943      0.00000
    253      35.5251      0.00000
    254      35.5790      0.00000
    255      35.8134      0.00000
    256      35.9493      0.00000


--------------------------------------------------------------------------------------------------------


 soft charge-density along one line, spin component           1
         0         1         2         3         4         5         6         7         8         9
 total charge-density along one line
 
 soft charge-density along one line, spin component           2
         0         1         2         3         4         5         6         7         8         9
 total charge-density along one line
 
 pseudopotential strength for first ion, spin component:           1
-21.932  -0.007   0.002   0.463   0.003  -0.001  -0.001  -0.004
 -0.007 -21.906   0.003   0.003   0.453  -0.001  -0.006  -0.020
  0.002   0.003 -21.972  -0.001  -0.001   0.479  -0.003  -0.011
  0.463   0.003  -0.001   7.312  -0.000   0.000   0.000  -0.000
  0.003   0.453  -0.001  -0.000   7.313   0.000   0.000  -0.001
 -0.001  -0.001   0.479   0.000   0.000   7.311   0.000  -0.001
 -0.001  -0.006  -0.003   0.000   0.000   0.000   1.394   6.763
 -0.004  -0.020  -0.011  -0.000  -0.001  -0.001   6.763  32.507
 pseudopotential strength for first ion, spin component:           2
-21.932  -0.007   0.002   0.462   0.003  -0.001  -0.001  -0.004
 -0.007 -21.904   0.002   0.003   0.452  -0.001  -0.007  -0.022
  0.002   0.002 -21.972  -0.001  -0.001   0.478  -0.003  -0.011
  0.462   0.003  -0.001   7.312  -0.000   0.000   0.000  -0.000
  0.003   0.452  -0.001  -0.000   7.313  -0.000   0.001  -0.001
 -0.001  -0.001   0.478   0.000  -0.000   7.311   0.000  -0.001
 -0.001  -0.007  -0.003   0.000   0.001   0.000   1.394   6.763
 -0.004  -0.022  -0.011  -0.000  -0.001  -0.001   6.763  32.507
 total augmentation occupancy for first ion, spin component:           1
  2.004   0.000  -0.000  -0.005   0.001  -0.000   0.003  -0.001
  0.000   2.003  -0.000   0.001  -0.010  -0.000   0.026  -0.009
 -0.000  -0.000   2.004  -0.000  -0.000   0.000   0.012  -0.004
 -0.005   0.001  -0.000   0.016  -0.003   0.001   0.002  -0.000
  0.001  -0.010  -0.000  -0.003   0.029  -0.000   0.016  -0.000
 -0.000  -0.000   0.000   0.001  -0.000   0.016   0.003  -0.000
  0.003   0.026   0.012   0.002   0.016   0.003   0.488  -0.011
 -0.001  -0.009  -0.004  -0.000  -0.000  -0.000  -0.011   0.000
 total augmentation occupancy for first ion, spin component:           2
 -0.000   0.000   0.000   0.000  -0.000  -0.000   0.000  -0.000
  0.000   0.000  -0.000  -0.000  -0.000   0.000  -0.002   0.000
  0.000  -0.000  -0.000  -0.000   0.000   0.000   0.000  -0.000
  0.000  -0.000  -0.000  -0.000   0.000   0.000  -0.001   0.000
 -0.000  -0.000   0.000   0.000   0.001  -0.000   0.005  -0.000
 -0.000   0.000   0.000   0.000  -0.000  -0.000   0.000  -0.000
  0.000  -0.002   0.000  -0.001   0.005   0.000   0.015  -0.000
 -0.000   0.000  -0.000   0.000  -0.000  -0.000  -0.000   0.000


------------------------ aborting loop because EDIFF is reached ----------------------------------------





 total charge

# of ion       s       p       d       tot
------------------------------------------
    1        0.048   5.997   0.000   6.045
    2        0.036   5.985   0.000   6.021
    3        0.043   5.991   0.000   6.034
    4        2.035   0.090   0.000   2.124
    5        2.028   0.078   0.000   2.106
    6        0.381   6.500   4.817  11.698
    7        0.391   6.520   4.856  11.767
    8        0.382   6.501   4.825  11.708
    9        0.390   6.520   4.851  11.761
   10        0.377   6.496   4.803  11.677
   11        0.384   6.510   4.832  11.725
   12        1.579   3.482   0.000   5.061
   13        1.580   3.488   0.000   5.068
   14        1.580   3.483   0.000   5.063
   15        1.581   3.454   0.000   5.035
   16        1.572   3.482   0.000   5.054
   17        1.590   3.362   0.000   4.952
   18        1.596   3.310   0.000   4.907
   19        1.580   3.403   0.000   4.983
   20        1.572   3.506   0.000   5.078
   21        1.579   3.462   0.000   5.041
   22        1.574   3.471   0.000   5.046
   23        1.573   3.485   0.000   5.058
   24        1.583   3.430   0.000   5.013
   25        1.578   3.463   0.000   5.041
   26        1.582   3.432   0.000   5.014
   27        1.602   3.293   0.000   4.895
--------------------------------------------------
tot         31.796 112.194  28.984 172.974



 magnetization (x)

# of ion       s       p       d       tot
------------------------------------------
    1        0.002   0.000   0.000   0.002
    2        0.002   0.001   0.000   0.002
    3        0.000  -0.001   0.000  -0.000
    4        0.001   0.002   0.000   0.004
    5        0.001   0.000   0.000   0.001
    6        0.025   0.033   2.901   2.959
    7        0.023   0.030   2.844   2.897
    8        0.024   0.030   2.891   2.946
    9        0.024   0.032   2.855   2.911
   10        0.026   0.036   2.921   2.983
   11        0.023   0.031   2.863   2.917
   12        0.002   0.084   0.000   0.086
   13        0.001   0.014   0.000   0.014
   14        0.002   0.077   0.000   0.079
   15       -0.001  -0.072   0.000  -0.073
   16       -0.000  -0.056   0.000  -0.056
   17        0.009   0.443   0.000   0.452
   18        0.012   0.595   0.000   0.607
   19        0.007   0.299   0.000   0.306
   20       -0.000  -0.008   0.000  -0.008
   21        0.004   0.132   0.000   0.136
   22       -0.000  -0.061   0.000  -0.061
   23        0.003   0.102   0.000   0.105
   24        0.005   0.224   0.000   0.230
   25       -0.000  -0.071   0.000  -0.072
   26        0.006   0.226   0.000   0.232
   27        0.012   0.631   0.000   0.643
--------------------------------------------------
tot          0.211   2.754  17.275  20.240
 
    FORLOC:  cpu time      0.0009: real time      0.0009
    FORHF :  cpu time    508.4837: real time    510.0152
    FORNL :  cpu time      1.3016: real time      1.3048
    STRESS:  cpu time      3.8088: real time      3.8183
    FORCOR:  cpu time      0.0447: real time      0.0449
    OFIELD:  cpu time      0.0001: real time      0.0001

  FORCE on cell =-STRESS in cart. coord.  units (eV):
  Direction    XX          YY          ZZ          XY          YZ          ZX
  --------------------------------------------------------------------------------------
  Alpha Z   677.77156   677.77156   677.77156
  Ewald    -411.48608  -601.93917 -9593.43244    53.64102   176.98149   136.16214
  Hartree  5661.44252  5520.01686 -1732.23857    46.65355   136.11233   107.02595
  E(xc)    -820.27721  -820.14970  -821.74204     0.05856     0.03647    -0.01395
  Local   -8189.79825 -7868.93512  8317.59595  -103.38881  -311.85451  -239.83144
  n-local    74.14408    72.31876    72.15799    -0.89914    -0.28583     0.83316
  augment   780.56170   782.26252   792.02080     0.26659    -0.31833    -0.35323
  Kinetic  3138.98788  3152.41671  3204.21349     4.97746    -0.84634    -4.34270
  Fock     -912.10901  -912.34264  -916.77852    -0.01593     0.13001     0.06826
  -------------------------------------------------------------------------------------
  Total      -0.76281     1.41979    -0.43178     1.29330    -0.04471    -0.45181
  in kB      -3.84032     7.14782    -2.17375     6.51105    -0.22509    -2.27462
  external pressure =        0.38 kB  Pullay stress =        0.00 kB


 VOLUME and BASIS-vectors are now :
 -----------------------------------------------------------------------------
  energy-cutoff  :      520.00
  volume of cell :      318.24
      direct lattice vectors                 reciprocal lattice vectors
    -2.858140452 -4.908670511 -0.047222878    -0.174378888 -0.102203739  0.001775309
    -2.886942472  4.925702468  0.001910130    -0.173768586  0.101171048  0.000840359
    -0.084493131 -0.051540330-11.266451449     0.000701441  0.000445536 -0.088766391

  length of vectors
     5.680338285  5.709376962 11.266886160     0.202130534  0.201076624  0.088770280


 FORCES acting on ions:
    Electron-Ion                     Ewald-Force                    Non-Local-Force
 -----------------------------------------------------------------------------------------------
   0.344E+02 -.287E+02 0.630E+02   -.335E+02 0.290E+02 -.604E+02   -.758E+00 -.255E+00 -.169E+01
   -.284E+02 0.269E+02 0.200E+02   0.286E+02 -.269E+02 -.205E+02   -.170E+00 -.383E-01 -.321E+00
   -.272E+02 0.157E+02 0.306E+02   0.265E+02 -.166E+02 -.287E+02   0.529E+00 0.801E+00 -.103E+01
   0.633E+00 -.151E+02 0.116E+03   -.495E+00 0.153E+02 -.118E+03   -.129E-01 -.130E+00 0.159E+01
   -.196E+02 0.211E+02 -.302E+02   0.190E+02 -.211E+02 0.291E+02   0.410E+00 0.496E-02 0.132E+01
   -.276E+02 0.569E+02 0.136E+03   0.267E+02 -.571E+02 -.138E+03   0.411E+00 -.762E-01 0.180E+01
   -.103E+02 -.902E+02 0.240E+03   0.947E+01 0.891E+02 -.242E+03   0.489E+00 0.112E+01 0.199E+01
   0.273E+02 0.686E+02 0.124E+03   -.262E+02 -.676E+02 -.127E+03   -.449E+00 -.910E+00 0.218E+01
   0.313E+00 -.856E+02 -.206E+03   -.434E+00 0.843E+02 0.207E+03   0.182E+00 0.109E+01 0.208E+00
   -.761E+01 -.207E+02 -.296E+03   0.729E+01 0.212E+02 0.297E+03   0.689E-02 -.370E+00 -.591E-01
   0.511E+02 0.653E+02 -.109E+03   -.496E+02 -.647E+02 0.110E+03   -.114E+01 -.788E+00 -.150E+00
   -.537E+01 0.231E+03 0.438E+03   0.532E+01 -.241E+03 -.457E+03   0.507E-01 0.851E+01 0.162E+02
   0.189E+03 -.109E+03 0.491E+03   -.197E+03 0.114E+03 -.513E+03   0.703E+01 -.363E+01 0.185E+02
   -.200E+03 -.108E+03 0.480E+03   0.208E+03 0.112E+03 -.501E+03   -.704E+01 -.367E+01 0.179E+02
   -.840E+00 -.112E+02 0.574E+03   0.105E+01 0.124E+02 -.601E+03   -.174E+00 -.102E+01 0.230E+02
   -.263E+00 0.539E+02 -.387E+03   0.911E-01 -.554E+02 0.408E+03   0.145E+00 0.130E+01 -.181E+02
   0.170E+03 0.413E+02 -.323E+03   -.179E+03 -.447E+02 0.340E+03   0.743E+01 0.289E+01 -.146E+02
   -.164E+03 0.472E+02 -.336E+03   0.173E+03 -.508E+02 0.354E+03   -.731E+01 0.313E+01 -.148E+02
   0.543E+01 -.152E+03 -.292E+03   -.550E+01 0.161E+03 0.307E+03   0.750E-01 -.776E+01 -.129E+02
   -.148E+03 0.126E+03 0.321E+03   0.157E+03 -.132E+03 -.338E+03   -.708E+01 0.510E+01 0.148E+02
   0.149E+01 -.231E+03 0.306E+03   -.154E+01 0.242E+03 -.323E+03   0.974E-01 -.998E+01 0.154E+02
   -.110E+02 -.355E+02 0.411E+03   0.118E+02 0.360E+02 -.433E+03   -.608E+00 -.518E+00 0.195E+02
   0.153E+03 0.125E+03 0.285E+03   -.161E+03 -.130E+03 -.300E+03   0.695E+01 0.478E+01 0.133E+02
   -.151E+03 -.371E+02 -.489E+03   0.159E+03 0.407E+02 0.508E+03   -.692E+01 -.303E+01 -.170E+02
   0.493E+02 -.200E+02 -.577E+03   -.506E+02 0.198E+02 0.602E+03   0.120E+01 0.168E+00 -.215E+02
   -.448E+02 0.160E+03 -.491E+03   0.464E+02 -.169E+03 0.509E+03   -.157E+01 0.804E+01 -.164E+02
   0.164E+03 -.938E+02 -.512E+03   -.173E+03 0.998E+02 0.532E+03   0.818E+01 -.526E+01 -.170E+02
 -----------------------------------------------------------------------------------------------
   -.155E-01 0.107E+00 -.109E+02   -.171E-12 0.000E+00 0.909E-12   -.380E-01 -.511E+00 0.119E+02
 
 
 POSITION                                       TOTAL-FORCE (eV/Angst)
 -----------------------------------------------------------------------------------
     -2.94771      1.76127     -2.81191         0.115722      0.040696      0.741470
     -1.39464      0.66217     -8.48030         0.016734     -0.037181     -0.871383
     -2.85468     -3.41279     -2.79659        -0.148794     -0.047694      0.729349
     -4.30716      2.34140     -6.22333         0.119415      0.114063     -0.464429
     -0.09553      0.08949     -0.18163        -0.136466      0.050877      0.233320
     -5.75192     -0.03100     -5.61540        -0.605189     -0.203763     -0.749568
     -4.31140     -2.52273     -5.69534        -0.358782     -0.199771     -0.608403
     -2.88350     -0.03485     -5.58832         0.707436      0.247408     -1.061574
     -1.46728      2.48046     -0.02552         0.033660     -0.337759      0.553379
     -1.53780     -2.46199    -11.25299        -0.280662      0.174426      0.871796
     -2.88351      0.06056     -0.11348         0.494284     -0.010853      0.819609
     -1.44353     -0.78140     -6.48804        -0.007352      0.024089     -0.245932
     -2.73686      1.49442     -6.60542        -0.003398     -0.006042     -0.441371
     -2.99679     -3.41009     -6.61741         0.064577      0.101037     -0.401393
     -4.30633     -0.83717     -6.58864         0.006853      0.032181     -0.585495
     -1.45569      0.79222     -4.55121        -0.009524     -0.043313     -0.210559
     -2.71050      3.28495     -4.53161         0.006042     -0.044921      0.003482
     -3.07346     -1.63436     -4.52704         0.005627     -0.015644      0.124361
     -4.31930      0.69781     -4.57742         0.016396     -0.075559      0.039052
     -1.56583      0.95466     -1.08138         0.045215     -0.059506      0.322988
     -2.90547      3.26356     -0.93075         0.062924      0.033703      0.490810
     -2.87152     -1.62319     -1.05546         0.100106     -0.051895      0.371980
     -4.26319      0.95269     -1.03560        -0.058646     -0.053076      0.555242
     -1.71200     -0.85126    -10.29938        -0.149701      0.123964     -0.160798
     -2.96543      1.59138    -10.30899        -0.022962      0.057431     -0.150834
     -3.01956     -3.18672    -10.31399        -0.132027      0.213054     -0.106151
     -4.28817     -0.88137    -10.32075         0.118514     -0.025953      0.201050
 -----------------------------------------------------------------------------------
    total drift:                                0.108818     -0.497566      0.924771


--------------------------------------------------------------------------------------------------------



  FREE ENERGIE OF THE ION-ELECTRON SYSTEM (eV)
  ---------------------------------------------------
  free  energy   TOTEN  =      -239.45723055 eV

  energy  without entropy=     -239.45723055  energy(sigma->0) =     -239.45723055
 


--------------------------------------------------------------------------------------------------------


    POTLOK:  cpu time      0.1245: real time      0.1248


--------------------------------------------------------------------------------------------------------


     LOOP+:  cpu time   4682.6184: real time   4701.1808
 -----------------------------------------------------------------------------
|                                                                             |
|           W    W    AA    RRRRR   N    N  II  N    N   GGGG   !!!           |
|           W    W   A  A   R    R  NN   N  II  NN   N  G    G  !!!           |
|           W    W  A    A  R    R  N N  N  II  N N  N  G       !!!           |
|           W WW W  AAAAAA  RRRRR   N  N N  II  N  N N  G  GGG   !            |
|           WW  WW  A    A  R   R   N   NN  II  N   NN  G    G                |
|           W    W  A    A  R    R  N    N  II  N    N   GGGG   !!!           |
|                                                                             |
|     Tetrahedron method does not include variations of the Fermi             |
|     occupations, so forces and stress will be inaccurate. We suggest        |
|     using a different smearing scheme ISMEAR = 1 or 2 for metals in         |
|     relaxations.                                                            |
|                                                                             |
 -----------------------------------------------------------------------------

    4ORBIT:  cpu time      0.0000: real time      0.0000



 total charge

# of ion       s       p       d       tot
------------------------------------------
    1        0.048   5.997   0.000   6.045
    2        0.036   5.985   0.000   6.021
    3        0.043   5.991   0.000   6.034
    4        2.035   0.090   0.000   2.124
    5        2.028   0.078   0.000   2.106
    6        0.381   6.500   4.817  11.698
    7        0.391   6.520   4.856  11.767
    8        0.382   6.501   4.825  11.708
    9        0.390   6.520   4.851  11.761
   10        0.377   6.496   4.803  11.677
   11        0.384   6.510   4.832  11.725
   12        1.579   3.482   0.000   5.061
   13        1.580   3.488   0.000   5.068
   14        1.580   3.483   0.000   5.063
   15        1.581   3.454   0.000   5.035
   16        1.572   3.482   0.000   5.054
   17        1.590   3.362   0.000   4.952
   18        1.596   3.310   0.000   4.907
   19        1.580   3.403   0.000   4.983
   20        1.572   3.506   0.000   5.078
   21        1.579   3.462   0.000   5.041
   22        1.574   3.471   0.000   5.046
   23        1.573   3.485   0.000   5.058
   24        1.583   3.430   0.000   5.013
   25        1.578   3.463   0.000   5.041
   26        1.582   3.432   0.000   5.014
   27        1.602   3.293   0.000   4.895
--------------------------------------------------
tot         31.796 112.194  28.984 172.974



 magnetization (x)

# of ion       s       p       d       tot
------------------------------------------
    1        0.002   0.000   0.000   0.002
    2        0.002   0.001   0.000   0.002
    3        0.000  -0.001   0.000  -0.000
    4        0.001   0.002   0.000   0.004
    5        0.001   0.000   0.000   0.001
    6        0.025   0.033   2.901   2.959
    7        0.023   0.030   2.844   2.897
    8        0.024   0.030   2.891   2.946
    9        0.024   0.032   2.855   2.911
   10        0.026   0.036   2.921   2.983
   11        0.023   0.031   2.863   2.917
   12        0.002   0.084   0.000   0.086
   13        0.001   0.014   0.000   0.014
   14        0.002   0.077   0.000   0.079
   15       -0.001  -0.072   0.000  -0.073
   16       -0.000  -0.056   0.000  -0.056
   17        0.009   0.443   0.000   0.452
   18        0.012   0.595   0.000   0.607
   19        0.007   0.299   0.000   0.306
   20       -0.000  -0.008   0.000  -0.008
   21        0.004   0.132   0.000   0.136
   22       -0.000  -0.061   0.000  -0.061
   23        0.003   0.102   0.000   0.105
   24        0.005   0.224   0.000   0.230
   25       -0.000  -0.071   0.000  -0.072
   26        0.006   0.226   0.000   0.232
   27        0.012   0.631   0.000   0.643
--------------------------------------------------
tot          0.211   2.754  17.275  20.240
 
 BZINTS: Fermi energy:    1.068354;  201.000000 electrons
         Band energy:-0.333157E+04;  BLOECHL correction:   -0.023617

 total amount of memory used by VASP MPI-rank0   173795. kBytes
=======================================================================

   base      :      30000. kBytes
   nonlr-proj:      18197. kBytes
   fftplans  :       1091. kBytes
   grid      :      13278. kBytes
   one-center:        839. kBytes
   HF        :        259. kBytes
   wavefun   :      34896. kBytes
   fock_wrk  :      75235. kBytes
 
  
  
 General timing and accounting informations for this job:
 ========================================================
  
                  Total CPU time used (sec):     5957.446
                            User time (sec):     5937.289
                          System time (sec):       20.158
                         Elapsed time (sec):     5986.299
  
                   Maximum memory used (kb):      695432.
                   Average memory used (kb):          N/A
  
                          Minor page faults:      2696619
                          Major page faults:            2
                 Voluntary context switches:        25342
