   27   27   99    2
  0.1291573E+02  0.6004850E-09  0.6013963E-09  0.1140407E-08  0.5000000E-15
  1.000000000000000E-004
  CAR 
 unknown system                          
    221     20    192
 
  0.0000000E+00  0.0000000E+00  0.0000000E+00  0.3125000E-01
      1        -53.266462      -48.759280   1.000000   1.000000
      2        -53.258932      -48.743023   1.000000   1.000000
      3        -53.249425      -48.637528   1.000000   1.000000
      4        -53.241375      -48.620748   1.000000   1.000000
      5        -53.220303      -48.603376   1.000000   1.000000
      6        -53.204087      -48.587346   1.000000   1.000000
      7        -53.199464      -48.566068   1.000000   1.000000
      8        -53.182521      -48.550354   1.000000   1.000000
      9        -53.171893      -48.472963   1.000000   1.000000
     10        -53.155905      -48.456093   1.000000   1.000000
     11        -53.126616      -48.381736   1.000000   1.000000
     12        -53.110284      -48.366020   1.000000   1.000000
     13        -52.923330      -47.862705   1.000000   1.000000
     14        -52.905512      -47.816720   1.000000   1.000000
     15        -52.874267      -47.702901   1.000000   1.000000
     16        -52.863876      -47.651190   1.000000   1.000000
     17        -52.855999      -47.117697   1.000000   1.000000
     18        -52.813994      -47.102478   1.000000   1.000000
     19        -52.374915      -47.061002   1.000000   1.000000
     20        -52.360029      -47.012148   1.000000   1.000000
     21        -52.357945      -46.922459   1.000000   1.000000
     22        -52.343596      -46.908408   1.000000   1.000000
     23        -52.225827      -45.841594   1.000000   1.000000
     24        -52.211598      -45.827397   1.000000   1.000000
     25        -22.760722      -22.761781   1.000000   1.000000
     26        -22.753273      -22.756644   1.000000   1.000000
     27        -22.746149      -22.748050   1.000000   1.000000
     28        -22.419400      -22.416274   1.000000   1.000000
     29        -22.384875      -22.382380   1.000000   1.000000
     30        -22.371109      -22.365517   1.000000   1.000000
     31        -21.960482      -21.951664   1.000000   1.000000
     32        -21.942952      -21.939964   1.000000   1.000000
     33        -21.941291      -21.937223   1.000000   1.000000
     34        -19.408981      -19.376611   1.000000   1.000000
     35        -19.344746      -19.314999   1.000000   1.000000
     36        -18.036214      -18.046549   1.000000   1.000000
     37        -18.019948      -18.029781   1.000000   1.000000
     38        -17.963347      -17.951491   1.000000   1.000000
     39        -17.944437      -17.929023   1.000000   1.000000
     40        -17.760762      -17.799686   1.000000   1.000000
     41        -17.743327      -17.786803   1.000000   1.000000
     42        -17.739701      -17.778706   1.000000   1.000000
     43        -17.723095      -17.769091   1.000000   1.000000
     44        -17.647783      -17.578303   1.000000   1.000000
     45        -17.632385      -17.550547   1.000000   1.000000
     46        -17.531843      -17.486290   1.000000   1.000000
     47        -17.515877      -17.470742   1.000000   1.000000
     48        -17.326926      -17.175566   1.000000   1.000000
     49        -17.257728      -17.122299   1.000000   1.000000
     50         -6.476599       -5.092849   1.000000   1.000000
     51         -6.436145       -5.038344   1.000000   1.000000
     52         -6.198756       -4.947766   1.000000   1.000000
     53         -6.158229       -4.880189   1.000000   1.000000
     54         -5.776463       -4.737808   1.000000   1.000000
     55         -5.730550       -4.667832   1.000000   1.000000
     56         -5.627508       -4.062382   1.000000   1.000000
     57         -5.445229       -3.698851   1.000000   1.000000
     58         -5.102042       -3.510398   1.000000   1.000000
     59         -5.082549       -3.421251   1.000000   1.000000
     60         -4.620524       -3.406738   1.000000   1.000000
     61         -4.603666       -3.363586   1.000000   1.000000
     62         -4.397769       -3.335603   1.000000   1.000000
     63         -4.380676       -3.321358   1.000000   1.000000
     64         -4.087894       -3.305937   1.000000   1.000000
     65         -4.068828       -3.257083   1.000000   1.000000
     66         -3.998976       -3.247602   1.000000   1.000000
     67         -3.976519       -3.193609   1.000000   1.000000
     68         -3.963207       -3.058819   1.000000   1.000000
     69         -3.914578       -3.042855   1.000000   1.000000
     70         -3.761073       -2.718674   1.000000   1.000000
     71         -3.672636       -2.703082   1.000000   1.000000
     72         -3.622524       -2.074474   1.000000   1.000000
     73         -3.556885       -1.950889   1.000000   1.000000
     74         -3.424953       -1.940365   1.000000   1.000000
     75         -3.408505       -1.864931   1.000000   1.000000
     76         -3.329096       -1.681596   1.000000   1.000000
     77         -3.314354       -1.662773   1.000000   1.000000
     78         -2.911131       -1.581160   1.000000   1.000000
     79         -2.834023       -1.418091   1.000000   1.000000
     80         -2.458148       -1.348488   1.000000   1.000000
     81         -2.438316       -1.258074   1.000000   1.000000
     82         -2.436110       -1.251561   1.000000   1.000000
     83         -2.408582       -1.203333   1.000000   1.000000
     84         -2.178890       -1.183961   1.000000   1.000000
     85         -2.152312       -1.126252   1.000000   1.000000
     86         -2.004707       -1.053313   1.000000   1.000000
     87         -1.977425       -0.860184   1.000000   1.000000
     88         -1.893983       -0.803110   1.000000   1.000000
     89         -1.870180       -0.757585   1.000000   1.000000
     90         -1.863410       -0.689849   1.000000   1.000000
     91         -1.798246       -0.664768   1.000000   1.000000
     92         -1.744638       -0.576267   1.000000   1.000000
     93         -1.710031       -0.117714   1.000000   1.000000
     94         -1.586921        0.081569   1.000000   1.000000
     95         -1.544511        0.099409   1.000000   1.000000
     96         -1.512322        0.197645   1.000000   1.000000
     97         -1.451832        0.231648   1.000000   1.000000
     98         -1.345528        4.766092   1.000000   0.000000
     99         -1.315186        4.811185   1.000000   0.000000
    100         -1.223814        4.818243   1.000000   0.000000
    101         -1.147226        4.853461   1.000000   0.000000
    102         -1.107903        4.969773   1.000000   0.000000
    103         -1.084424        4.986555   1.000000   0.000000
    104         -1.012688        5.206113   1.000000   0.000000
    105         -0.986000        5.263718   1.000000   0.000000
    106         -0.946077        5.279380   1.000000   0.000000
    107         -0.930479        5.308802   1.000000   0.000000
    108         -0.824696        5.566084   1.000000   0.000000
    109         -0.756911        5.582042   1.000000   0.000000
    110         -0.694739        5.973971   1.000000   0.000000
    111         -0.612080        5.986338   1.000000   0.000000
    112         -0.582107        6.009703   1.000000   0.000000
    113         -0.548332        6.038014   1.000000   0.000000
    114         -0.519470        6.242003   1.000000   0.000000
    115         -0.144971        6.293597   1.000000   0.000000
    116         -0.089876        6.537365   1.000000   0.000000
    117          0.111960        6.553440   1.000000   0.000000
    118          0.206108        6.650516   1.000000   0.000000
    119          0.265038        6.666576   1.000000   0.000000
    120          0.269679        6.774791   1.000000   0.000000
    121          0.287178        6.795586   1.000000   0.000000
    122          2.057722        7.257963   1.000000   0.000000
    123          2.127593        7.351986   1.000000   0.000000
    124          3.118667        7.457757   0.000000   0.000000
    125          3.196471        7.564072   0.000000   0.000000
    126          4.735927        7.579176   0.000000   0.000000
    127          4.833536        7.656146   0.000000   0.000000
    128          5.005199        7.742884   0.000000   0.000000
    129          5.096438        7.751778   0.000000   0.000000
    130          5.097409        7.854379   0.000000   0.000000
    131          5.195624        7.854447   0.000000   0.000000
    132          5.514302        8.033799   0.000000   0.000000
    133          5.528318        8.048486   0.000000   0.000000
    134          5.579565        8.051372   0.000000   0.000000
    135          5.591107        8.285885   0.000000   0.000000
    136          5.757975        8.344907   0.000000   0.000000
    137          5.762267        8.347398   0.000000   0.000000
    138          7.958186        8.506006   0.000000   0.000000
    139          9.448161        9.569141   0.000000   0.000000
    140         10.717452       11.427181   0.000000   0.000000
    141         11.835792       12.007661   0.000000   0.000000
    142         11.961045       12.115278   0.000000   0.000000
    143         12.157995       12.571521   0.000000   0.000000
    144         12.431797       12.717672   0.000000   0.000000
    145         12.670289       12.896970   0.000000   0.000000
    146         12.854759       13.099724   0.000000   0.000000
    147         12.932454       13.257802   0.000000   0.000000
    148         13.457249       13.549219   0.000000   0.000000
    149         13.512747       13.694345   0.000000   0.000000
    150         13.588132       14.073062   0.000000   0.000000
    151         13.921305       14.276798   0.000000   0.000000
    152         13.967045       14.338722   0.000000   0.000000
    153         14.073213       14.341404   0.000000   0.000000
    154         14.124573       14.621106   0.000000   0.000000
    155         14.282064       14.727056   0.000000   0.000000
    156         14.736448       14.952517   0.000000   0.000000
    157         14.766938       15.228775   0.000000   0.000000
    158         14.948344       15.233952   0.000000   0.000000
    159         15.206552       16.500726   0.000000   0.000000
    160         16.256832       17.156542   0.000000   0.000000
    161         16.329279       17.228629   0.000000   0.000000
    162         16.795239       17.354808   0.000000   0.000000
    163         17.002980       17.378757   0.000000   0.000000
    164         17.108582       17.558281   0.000000   0.000000
    165         17.465820       17.658350   0.000000   0.000000
    166         17.502655       17.826351   0.000000   0.000000
    167         17.613450       17.969226   0.000000   0.000000
    168         17.624770       18.140160   0.000000   0.000000
    169         17.765551       18.455366   0.000000   0.000000
    170         17.883496       18.581779   0.000000   0.000000
    171         18.238900       18.682186   0.000000   0.000000
    172         18.255471       18.734033   0.000000   0.000000
    173         18.508562       18.928312   0.000000   0.000000
    174         18.950055       19.785199   0.000000   0.000000
    175         18.994523       19.806805   0.000000   0.000000
    176         19.207841       19.827922   0.000000   0.000000
    177         19.415129       20.071763   0.000000   0.000000
    178         19.489558       20.187064   0.000000   0.000000
    179         19.535412       20.486494   0.000000   0.000000
    180         19.603553       20.551532   0.000000   0.000000
    181         19.773553       20.608470   0.000000   0.000000
    182         19.829346       20.739815   0.000000   0.000000
    183         20.471825       21.216073   0.000000   0.000000
    184         20.686434       21.225025   0.000000   0.000000
    185         20.687688       21.257445   0.000000   0.000000
    186         21.399297       21.867059   0.000000   0.000000
    187         21.689932       22.200836   0.000000   0.000000
    188         21.918414       22.350907   0.000000   0.000000
    189         22.022374       22.562149   0.000000   0.000000
    190         22.133860       22.598909   0.000000   0.000000
    191         22.312769       22.778044   0.000000   0.000000
    192         22.934079       23.323712   0.000000   0.000000
 
  0.2500000E+00  0.7821478E-18 -0.3054655E-14  0.6250000E-01
      1        -53.257262      -48.738839   1.000000   1.000000
      2        -53.251717      -48.722512   1.000000   1.000000
      3        -53.239913      -48.636854   1.000000   1.000000
      4        -53.234535      -48.620220   1.000000   1.000000
      5        -53.219843      -48.614524   1.000000   1.000000
      6        -53.203646      -48.598401   1.000000   1.000000
      7        -53.198421      -48.574148   1.000000   1.000000
      8        -53.181563      -48.558495   1.000000   1.000000
      9        -53.176135      -48.472495   1.000000   1.000000
     10        -53.159941      -48.455616   1.000000   1.000000
     11        -53.137689      -48.382367   1.000000   1.000000
     12        -53.121559      -48.366659   1.000000   1.000000
     13        -52.921247      -47.859936   1.000000   1.000000
     14        -52.905827      -47.813838   1.000000   1.000000
     15        -52.871918      -47.703112   1.000000   1.000000
     16        -52.864805      -47.651276   1.000000   1.000000
     17        -52.856276      -47.121179   1.000000   1.000000
     18        -52.814853      -47.106090   1.000000   1.000000
     19        -52.377810      -47.061284   1.000000   1.000000
     20        -52.363039      -47.012424   1.000000   1.000000
     21        -52.358647      -46.923967   1.000000   1.000000
     22        -52.344389      -46.909989   1.000000   1.000000
     23        -52.226162      -45.841842   1.000000   1.000000
     24        -52.211934      -45.827647   1.000000   1.000000
     25        -22.760870      -22.761912   1.000000   1.000000
     26        -22.752141      -22.755566   1.000000   1.000000
     27        -22.745947      -22.747861   1.000000   1.000000
     28        -22.419612      -22.416464   1.000000   1.000000
     29        -22.384803      -22.382333   1.000000   1.000000
     30        -22.371871      -22.366232   1.000000   1.000000
     31        -21.959747      -21.950956   1.000000   1.000000
     32        -21.943025      -21.940107   1.000000   1.000000
     33        -21.941474      -21.937322   1.000000   1.000000
     34        -19.210255      -19.182191   1.000000   1.000000
     35        -19.154405      -19.128966   1.000000   1.000000
     36        -18.179299      -18.185440   1.000000   1.000000
     37        -18.155416      -18.162105   1.000000   1.000000
     38        -17.984802      -17.997401   1.000000   1.000000
     39        -17.965818      -17.977537   1.000000   1.000000
     40        -17.898364      -17.903134   1.000000   1.000000
     41        -17.883060      -17.885260   1.000000   1.000000
     42        -17.706038      -17.735220   1.000000   1.000000
     43        -17.685205      -17.714260   1.000000   1.000000
     44        -17.585506      -17.602795   1.000000   1.000000
     45        -17.569480      -17.577510   1.000000   1.000000
     46        -17.550564      -17.425421   1.000000   1.000000
     47        -17.528376      -17.404309   1.000000   1.000000
     48        -17.358389      -17.215971   1.000000   1.000000
     49        -17.299314      -17.167767   1.000000   1.000000
     50         -6.132881       -4.699637   1.000000   1.000000
     51         -6.088707       -4.633536   1.000000   1.000000
     52         -5.883504       -4.626482   1.000000   1.000000
     53         -5.845287       -4.570929   1.000000   1.000000
     54         -5.489025       -4.354721   1.000000   1.000000
     55         -5.438998       -4.280599   1.000000   1.000000
     56         -5.376905       -3.847052   1.000000   1.000000
     57         -5.212185       -3.709352   1.000000   1.000000
     58         -5.035277       -3.639614   1.000000   1.000000
     59         -5.002422       -3.621477   1.000000   1.000000
     60         -4.767415       -3.589587   1.000000   1.000000
     61         -4.740948       -3.572171   1.000000   1.000000
     62         -4.552026       -3.508614   1.000000   1.000000
     63         -4.527841       -3.477555   1.000000   1.000000
     64         -4.423527       -3.474368   1.000000   1.000000
     65         -4.391812       -3.378644   1.000000   1.000000
     66         -4.138830       -3.217825   1.000000   1.000000
     67         -4.068977       -3.183892   1.000000   1.000000
     68         -4.026377       -2.891680   1.000000   1.000000
     69         -3.990250       -2.847558   1.000000   1.000000
     70         -3.906807       -2.577180   1.000000   1.000000
     71         -3.831066       -2.522787   1.000000   1.000000
     72         -3.681691       -2.467489   1.000000   1.000000
     73         -3.612113       -2.393951   1.000000   1.000000
     74         -3.423401       -2.148261   1.000000   1.000000
     75         -3.391321       -1.961462   1.000000   1.000000
     76         -3.356731       -1.876371   1.000000   1.000000
     77         -3.312595       -1.797640   1.000000   1.000000
     78         -3.077576       -1.781910   1.000000   1.000000
     79         -3.012046       -1.681750   1.000000   1.000000
     80         -2.857890       -1.556904   1.000000   1.000000
     81         -2.831422       -1.469831   1.000000   1.000000
     82         -2.786396       -1.444236   1.000000   1.000000
     83         -2.764275       -1.349929   1.000000   1.000000
     84         -2.647154       -1.166753   1.000000   1.000000
     85         -2.620219       -1.109713   1.000000   1.000000
     86         -2.439845       -0.791146   1.000000   1.000000
     87         -2.407574       -0.725475   1.000000   1.000000
     88         -2.247725       -0.703540   1.000000   1.000000
     89         -2.210923       -0.624951   1.000000   1.000000
     90         -1.816535       -0.549164   1.000000   1.000000
     91         -1.786293       -0.488091   1.000000   1.000000
     92         -1.600925       -0.457468   1.000000   1.000000
     93         -1.547137       -0.336155   1.000000   1.000000
     94         -1.534878       -0.284196   1.000000   1.000000
     95         -1.480398       -0.100651   1.000000   1.000000
     96         -1.405980       -0.061631   1.000000   1.000000
     97         -1.362108        0.118013   1.000000   1.000000
     98         -1.230241        5.001327   1.000000   0.000000
     99         -1.146617        5.032308   1.000000   0.000000
    100         -1.048180        5.057700   1.000000   0.000000
    101         -0.937047        5.093630   1.000000   0.000000
    102         -0.908087        5.145077   1.000000   0.000000
    103         -0.827697        5.178137   1.000000   0.000000
    104         -0.774957        5.313900   1.000000   0.000000
    105         -0.697428        5.379940   1.000000   0.000000
    106         -0.658976        5.444148   1.000000   0.000000
    107         -0.626312        5.446772   1.000000   0.000000
    108         -0.589058        5.657479   1.000000   0.000000
    109         -0.550449        5.670751   1.000000   0.000000
    110         -0.469162        5.948855   1.000000   0.000000
    111         -0.260003        5.955133   1.000000   0.000000
    112         -0.248680        6.062930   1.000000   0.000000
    113         -0.231798        6.066696   1.000000   0.000000
    114         -0.146991        6.260626   1.000000   0.000000
    115         -0.141061        6.320122   1.000000   0.000000
    116         -0.083874        6.446746   1.000000   0.000000
    117          0.165390        6.475554   1.000000   0.000000
    118          0.263966        6.657910   1.000000   0.000000
    119          0.308274        6.678899   1.000000   0.000000
    120          0.326603        6.746952   1.000000   0.000000
    121          0.481603        6.794529   1.000000   0.000000
    122          1.901880        7.068354   1.000000   0.000000
    123          1.972394        7.218431   1.000000   0.000000
    124          2.880021        7.281950   0.002956   0.000000
    125          2.986466        7.354068   0.000000   0.000000
    126          4.563271        7.396623   0.000000   0.000000
    127          4.696243        7.417039   0.000000   0.000000
    128          4.784037        7.461910   0.000000   0.000000
    129          4.891151        7.517033   0.000000   0.000000
    130          4.902776        7.606286   0.000000   0.000000
    131          5.026628        7.640561   0.000000   0.000000
    132          5.236306        7.859193   0.000000   0.000000
    133          5.290377        7.863105   0.000000   0.000000
    134          5.296769        7.930935   0.000000   0.000000
    135          5.329107        8.040521   0.000000   0.000000
    136          5.396173        8.213204   0.000000   0.000000
    137          5.433273        8.254472   0.000000   0.000000
    138          8.554270        8.877220   0.000000   0.000000
    139          9.835851       10.063687   0.000000   0.000000
    140         10.971079       11.148155   0.000000   0.000000
    141         11.428593       11.814341   0.000000   0.000000
    142         11.660335       12.071522   0.000000   0.000000
    143         11.962999       12.131430   0.000000   0.000000
    144         12.622560       12.762063   0.000000   0.000000
    145         12.755397       12.922159   0.000000   0.000000
    146         12.830213       13.311033   0.000000   0.000000
    147         13.131722       13.422087   0.000000   0.000000
    148         13.744562       13.954783   0.000000   0.000000
    149         13.840847       14.368121   0.000000   0.000000
    150         13.843501       14.369438   0.000000   0.000000
    151         14.306995       14.791963   0.000000   0.000000
    152         14.318297       14.945502   0.000000   0.000000
    153         14.546048       14.949371   0.000000   0.000000
    154         14.916443       15.187498   0.000000   0.000000
    155         15.112317       15.441066   0.000000   0.000000
    156         15.196502       15.687484   0.000000   0.000000
    157         15.489810       15.877040   0.000000   0.000000
    158         15.687870       16.491834   0.000000   0.000000
    159         16.162180       16.568350   0.000000   0.000000
    160         16.399988       16.952292   0.000000   0.000000
    161         16.523224       17.138008   0.000000   0.000000
    162         16.722633       17.381660   0.000000   0.000000
    163         17.222926       17.677705   0.000000   0.000000
    164         17.357003       17.878088   0.000000   0.000000
    165         17.409432       17.989723   0.000000   0.000000
    166         17.534684       17.993543   0.000000   0.000000
    167         17.534886       18.053405   0.000000   0.000000
    168         17.747863       18.288772   0.000000   0.000000
    169         17.869796       18.334662   0.000000   0.000000
    170         17.901823       18.377758   0.000000   0.000000
    171         18.345004       18.773717   0.000000   0.000000
    172         18.427235       18.839286   0.000000   0.000000
    173         18.622376       19.133809   0.000000   0.000000
    174         18.675287       19.160904   0.000000   0.000000
    175         18.867024       19.615192   0.000000   0.000000
    176         18.964204       19.630127   0.000000   0.000000
    177         19.127361       19.846287   0.000000   0.000000
    178         19.260334       19.957320   0.000000   0.000000
    179         19.482133       20.189376   0.000000   0.000000
    180         19.505210       20.354182   0.000000   0.000000
    181         19.620231       20.434586   0.000000   0.000000
    182         19.865546       20.660201   0.000000   0.000000
    183         20.318765       20.959059   0.000000   0.000000
    184         20.440457       21.009605   0.000000   0.000000
    185         20.509120       21.146845   0.000000   0.000000
    186         20.515393       21.160642   0.000000   0.000000
    187         20.842433       21.370825   0.000000   0.000000
    188         21.085153       21.676042   0.000000   0.000000
    189         21.343903       21.905855   0.000000   0.000000
    190         21.630873       22.127469   0.000000   0.000000
    191         21.740579       22.254012   0.000000   0.000000
    192         21.912385       22.570086   0.000000   0.000000
 
  0.5000000E+00  0.1681057E-17  0.9961179E-15  0.3125000E-01
      1        -53.255472      -48.707723   1.000000   1.000000
      2        -53.238166      -48.691125   1.000000   1.000000
      3        -53.229582      -48.647778   1.000000   1.000000
      4        -53.219875      -48.632064   1.000000   1.000000
      5        -53.212236      -48.627721   1.000000   1.000000
      6        -53.203596      -48.610970   1.000000   1.000000
      7        -53.199024      -48.579266   1.000000   1.000000
      8        -53.185024      -48.563638   1.000000   1.000000
      9        -53.182997      -48.472018   1.000000   1.000000
     10        -53.167948      -48.455129   1.000000   1.000000
     11        -53.149500      -48.383002   1.000000   1.000000
     12        -53.133786      -48.367303   1.000000   1.000000
     13        -52.919149      -47.857155   1.000000   1.000000
     14        -52.906159      -47.810943   1.000000   1.000000
     15        -52.869540      -47.703293   1.000000   1.000000
     16        -52.865682      -47.651327   1.000000   1.000000
     17        -52.856572      -47.124724   1.000000   1.000000
     18        -52.815667      -47.109774   1.000000   1.000000
     19        -52.380820      -47.061565   1.000000   1.000000
     20        -52.366198      -47.012697   1.000000   1.000000
     21        -52.359266      -46.925454   1.000000   1.000000
     22        -52.345073      -46.911548   1.000000   1.000000
     23        -52.226494      -45.842091   1.000000   1.000000
     24        -52.212268      -45.827896   1.000000   1.000000
     25        -22.761021      -22.762046   1.000000   1.000000
     26        -22.751021      -22.754501   1.000000   1.000000
     27        -22.745742      -22.747669   1.000000   1.000000
     28        -22.419829      -22.416659   1.000000   1.000000
     29        -22.384738      -22.382293   1.000000   1.000000
     30        -22.372612      -22.366928   1.000000   1.000000
     31        -21.959035      -21.950269   1.000000   1.000000
     32        -21.943106      -21.940252   1.000000   1.000000
     33        -21.941640      -21.937410   1.000000   1.000000
     34        -18.755810      -18.751027   1.000000   1.000000
     35        -18.718617      -18.716558   1.000000   1.000000
     36        -18.644090      -18.617305   1.000000   1.000000
     37        -18.604701      -18.579640   1.000000   1.000000
     38        -18.021694      -18.054380   1.000000   1.000000
     39        -17.998970      -18.031342   1.000000   1.000000
     40        -17.934313      -17.928368   1.000000   1.000000
     41        -17.919529      -17.910880   1.000000   1.000000
     42        -17.661554      -17.684692   1.000000   1.000000
     43        -17.640357      -17.662011   1.000000   1.000000
     44        -17.611949      -17.629239   1.000000   1.000000
     45        -17.596906      -17.607878   1.000000   1.000000
     46        -17.483342      -17.349989   1.000000   1.000000
     47        -17.440738      -17.316435   1.000000   1.000000
     48        -17.417074      -17.278844   1.000000   1.000000
     49        -17.378825      -17.243147   1.000000   1.000000
     50         -5.546998       -4.120778   1.000000   1.000000
     51         -5.484811       -4.095399   1.000000   1.000000
     52         -5.367326       -4.061415   1.000000   1.000000
     53         -5.318192       -4.035807   1.000000   1.000000
     54         -5.279032       -4.020007   1.000000   1.000000
     55         -5.231126       -3.955675   1.000000   1.000000
     56         -5.181930       -3.938260   1.000000   1.000000
     57         -5.141371       -3.835771   1.000000   1.000000
     58         -4.997851       -3.831586   1.000000   1.000000
     59         -4.963199       -3.738379   1.000000   1.000000
     60         -4.840656       -3.712449   1.000000   1.000000
     61         -4.781028       -3.617516   1.000000   1.000000
     62         -4.733802       -3.359581   1.000000   1.000000
     63         -4.718684       -3.310289   1.000000   1.000000
     64         -4.607287       -3.186401   1.000000   1.000000
     65         -4.601351       -3.141084   1.000000   1.000000
     66         -4.281236       -3.112676   1.000000   1.000000
     67         -4.255462       -3.070426   1.000000   1.000000
     68         -4.167011       -3.068939   1.000000   1.000000
     69         -4.143824       -3.041471   1.000000   1.000000
     70         -3.710363       -2.795611   1.000000   1.000000
     71         -3.662439       -2.752718   1.000000   1.000000
     72         -3.644933       -2.682043   1.000000   1.000000
     73         -3.593626       -2.637436   1.000000   1.000000
     74         -3.582883       -2.361186   1.000000   1.000000
     75         -3.560102       -2.202510   1.000000   1.000000
     76         -3.395465       -2.193804   1.000000   1.000000
     77         -3.367303       -2.069254   1.000000   1.000000
     78         -3.351496       -2.045535   1.000000   1.000000