       N       E                     dE             d eps       ncg     rms          ort
DAV:   1    -0.825210675770E+03   -0.82521E+03   -0.13685E+05  3840   0.154E+03
DAV:   2    -0.322186640574E+04   -0.23967E+04   -0.22267E+04  3840   0.395E+02
DAV:   3    -0.337943495182E+04   -0.15757E+03   -0.15631E+03  3840   0.108E+02
DAV:   4    -0.338129548214E+04   -0.18605E+01   -0.18604E+01  3840   0.130E+01
DAV:   5    -0.343047623695E+03    0.30382E+04   -0.27781E+01  3840   0.254E+01
SDA:   6    -0.523456367116E+02    0.29070E+03   -0.27781E+01  3840   0.837E+03 0.000E+00
CGA:   7    -0.210228913803E+03   -0.15788E+03   -0.15749E+03  3840   0.174E+03-0.146E+02
CGA:   8    -0.243001339844E+03   -0.32772E+02   -0.32772E+02  3840   0.736E+02 0.210E+00
CGA:   9    -0.254473775905E+03   -0.11472E+02   -0.12141E+02  3840   0.654E+02 0.558E+01
CGA:  10    -0.261241062600E+03   -0.67673E+01   -0.78853E+01  3840   0.278E+02-0.114E+02
CGA:  11    -0.264628051866E+03   -0.33870E+01   -0.32772E+01  3840   0.690E+01 0.107E+01
CGA:  12    -0.265944489862E+03   -0.13164E+01   -0.13128E+01  3840   0.714E+01-0.226E+00
CGA:  13    -0.266222575389E+03   -0.27809E+00   -0.50268E+00  3840   0.280E+01-0.148E+01
CGA:  14    -0.266556932195E+03   -0.33436E+00   -0.31868E+00  3840   0.175E+01-0.108E+00
CGA:  15    -0.266785561794E+03   -0.22863E+00   -0.23768E+00  3840   0.756E+00 0.657E-01
CGA:  16    -0.266911890296E+03   -0.12633E+00   -0.12615E+00  3840   0.748E+00-0.725E-02
CGA:  17    -0.266996842618E+03   -0.84952E-01   -0.87840E-01  3840   0.258E+00-0.407E-03
CGA:  18    -0.267063951780E+03   -0.67109E-01   -0.66731E-01  3840   0.166E+00 0.375E-02
CGA:  19    -0.267089722324E+03   -0.25771E-01   -0.25945E-01  3840   0.164E+00 0.199E-02
CGA:  20    -0.267116644502E+03   -0.26922E-01   -0.26972E-01  3840   0.650E-01 0.119E-02
CGA:  21    -0.267136348015E+03   -0.19704E-01   -0.19719E-01  3840   0.459E-01-0.102E-03
CGA:  22    -0.267145285584E+03   -0.89376E-02   -0.89280E-02  3840   0.478E-01 0.520E-03
CGA:  23    -0.267152392074E+03   -0.71065E-02   -0.71101E-02  3840   0.183E-01-0.590E-05
CGA:  24    -0.267157516461E+03   -0.51244E-02   -0.51247E-02  3840   0.114E-01-0.324E-05
CGA:  25    -0.267159457093E+03   -0.19406E-02   -0.19405E-02  3840   0.963E-02-0.622E-05
CGA:  26    -0.267161011865E+03   -0.15548E-02   -0.15539E-02  3840   0.330E-02-0.144E-04
CGA:  27    -0.267161858514E+03   -0.84665E-03   -0.84742E-03  3840   0.198E-02-0.938E-05
   1 F= -.26716186E+03 E0= -.26715939E+03  d E =-.267162E+03  mag=    27.0000
       N       E                     dE             d eps       ncg     rms          ort
SDA:   1    -0.215056579819E+03    0.52104E+02    0.00000E+00  3840   0.169E+03 0.000E+00
CGA:   2    -0.253409317032E+03   -0.38353E+02   -0.38390E+02  3840   0.435E+02-0.635E+00
CGA:   3    -0.262078568126E+03   -0.86693E+01   -0.86284E+01  3840   0.126E+02 0.199E+01
CGA:   4    -0.264359300490E+03   -0.22807E+01   -0.23105E+01  3840   0.814E+01 0.143E+00
CGA:   5    -0.265610483796E+03   -0.12512E+01   -0.12124E+01  3840   0.388E+01-0.128E+01
CGA:   6    -0.266323605353E+03   -0.71312E+00   -0.31848E+00  3840   0.145E+01 0.199E+01
CGA:   7    -0.266492559620E+03   -0.16895E+00   -0.16832E+00  3840   0.223E+01-0.212E-01
CGA:   8    -0.266687748436E+03   -0.19519E+00   -0.20630E+00  3840   0.472E+00-0.245E-01
CGA:   9    -0.266807422085E+03   -0.11967E+00   -0.11699E+00  3840   0.888E+00 0.297E-01
CGA:  10    -0.266872977527E+03   -0.65555E-01   -0.56612E-01  3840   0.141E+00 0.962E-01
CGA:  11    -0.266914269817E+03   -0.41292E-01   -0.41279E-01  3840   0.250E+00 0.507E-03
CGA:  12    -0.266928296334E+03   -0.14027E-01   -0.12608E-01  3840   0.451E-01 0.306E-01
CGA:  13    -0.266933451851E+03   -0.51555E-02   -0.53386E-02  3840   0.695E-01-0.137E-03
CGA:  14    -0.266939352631E+03   -0.59008E-02   -0.61327E-02  3840   0.232E-01-0.409E-03
CGA:  15    -0.266940421382E+03   -0.10688E-02   -0.11474E-02  3840   0.717E-02-0.108E-02
   2 F= -.26694042E+03 E0= -.26693768E+03  d E =0.221437E+00  mag=    27.0000
       N       E                     dE             d eps       ncg     rms          ort
SDA:   1    -0.250727559267E+03    0.16212E+02    0.00000E+00  3840   0.621E+02 0.000E+00
CGA:   2    -0.263909485059E+03   -0.13182E+02   -0.13132E+02  3840   0.126E+02 0.707E+00
CGA:   3    -0.266649004189E+03   -0.27395E+01   -0.27363E+01  3840   0.380E+01 0.666E-01
CGA:   4    -0.267267743347E+03   -0.61874E+00   -0.61990E+00  3840   0.222E+01 0.320E+00
CGA:   5    -0.267601072125E+03   -0.33333E+00   -0.28973E+00  3840   0.811E+00-0.478E+00
CGA:   6    -0.267718133399E+03   -0.11706E+00   -0.11728E+00  3840   0.264E+00-0.452E-02
CGA:   7    -0.267785073097E+03   -0.66940E-01   -0.66638E-01  3840   0.225E+00 0.286E-02
CGA:   8    -0.267806465874E+03   -0.21393E-01   -0.22453E-01  3840   0.106E+00-0.641E-02
CGA:   9    -0.267828346931E+03   -0.21881E-01   -0.22401E-01  3840   0.557E-01-0.693E-02
CGA:  10    -0.267834376202E+03   -0.60293E-02   -0.62238E-02  3840   0.230E-01 0.608E-03
CGA:  11    -0.267838103852E+03   -0.37277E-02   -0.37271E-02  3840   0.781E-02-0.632E-04
CGA:  12    -0.267839096818E+03   -0.99297E-03   -0.99575E-03  3840   0.388E-02 0.202E-04
   3 F= -.26783910E+03 E0= -.26783656E+03  d E =-.677238E+00  mag=    27.0000
