 vasp.6.4.2 20Jul23 (build Nov 27 2023 21:25:52) complex                        
  
 executed on             LinuxIFC date 2024.12.10  17:05:11
 running   64 mpi-ranks, on    1 nodes
 distrk:  each k-point on   64 cores,    1 groups
 distr:  one band on NCORE=   1 cores,   64 groups


--------------------------------------------------------------------------------------------------------


 INCAR:
   ALGO = All
   EDIFF = 0.00135
   ENCUT = 520
   HFSCREEN = 0.2
   IBRION = 2
   ICHARG = 1
   ISIF = 3
   ISMEAR = 0
   ISPIN = 2
   LHFCALC = True
   LMAXMIX = 4
   LORBIT = 11
   LREAL = Auto
   LWAVE = False
   MAGMOM = 3*0.6 8*3.0 16*0.6
   NELM = 100
   NSW = 99
   PREC = Accurate
   PRECFOCK = Fast
   SIGMA = 0.05
   SYMPREC = 1e-09

 POTCAR:    PAW_PBE Na_pv 19Sep2006               
 POTCAR:    PAW_PBE Mn_pv 02Aug2007               
 POTCAR:    PAW_PBE O 08Apr2002                   
 -----------------------------------------------------------------------------
|                                                                             |
|           W    W    AA    RRRRR   N    N  II  N    N   GGGG   !!!           |
|           W    W   A  A   R    R  NN   N  II  NN   N  G    G  !!!           |
|           W    W  A    A  R    R  N N  N  II  N N  N  G       !!!           |
|           W WW W  AAAAAA  RRRRR   N  N N  II  N  N N  G  GGG   !            |
|           WW  WW  A    A  R   R   N   NN  II  N   NN  G    G                |
|           W    W  A    A  R    R  N    N  II  N    N   GGGG   !!!           |
|                                                                             |
|     For optimal performance we recommend to set                             |
|       NCORE = 2 up to number-of-cores-per-socket                            |
|     NCORE specifies how many cores store one orbital (NPAR=cpu/NCORE).      |
|     This setting can greatly improve the performance of VASP for DFT.       |
|     The default, NCORE=1 might be grossly inefficient on modern             |
|     multi-core architectures or massively parallel machines. Do your        |
|     own testing! More info at https://www.vasp.at/wiki/index.php/NCORE      |
|     Unfortunately you need to use the default for GW and RPA                |
|     calculations (for HF NCORE is supported but not extensively tested      |
|     yet).                                                                   |
|                                                                             |
 -----------------------------------------------------------------------------

 POTCAR:    PAW_PBE Na_pv 19Sep2006               
   VRHFIN =Na: p6s1                                                                                 
   LEXCH  = PE                                                                                      
   EATOM  =   766.0439 eV,   56.3026 Ry                                                             
                                                                                                    
   TITEL  = PAW_PBE Na_pv 19Sep2006                                                                 
   LULTRA =        F    use ultrasoft PP ?                                                          
   IUNSCR =        1    unscreen: 0-lin 1-nonlin 2-no                                               
   RPACOR =    1.800    partial core radius                                                         
   POMASS =   22.990; ZVAL   =    7.000    mass and valenz                                          
   RCORE  =    2.200    outmost cutoff radius                                                       
   RWIGS  =    2.200; RWIGS  =    1.164    wigner-seitz radius (au A)                               
   ENMAX  =  259.561; ENMIN  =  194.671 eV                                                          
   ICORE  =        2    local potential                                                             
   LCOR   =        T    correct aug charges                                                         
   LPAW   =        T    paw PP                                                                      
   EAUG   =  368.056                                                                                
   DEXC   =    0.000                                                                                
   RMAX   =    2.245    core radius for proj-oper                                                   
   RAUG   =    1.300    factor for augmentation sphere                                              
   RDEP   =    2.259    radius for radial grids                                                     
   RDEPT  =    1.738    core radius for aug-charge                                                  
                                                                                                    
   Atomic configuration                                                                             
    5 entries                                                                                       
     n  l   j            E        occ.                                                              
     1  0  0.50     -1033.6933   2.0000                                                             
     2  0  0.50       -56.7526   2.0000                                                             
     2  1  1.50       -28.6721   6.0000                                                             
     3  0  0.50        -2.7440   1.0000                                                             
     3  2  1.50        -1.3606   0.0000                                                             
   Description                                                                                      
     l       E           TYP  RCUT    TYP  RCUT                                                     
     1    -28.6720912     23  2.000                                                                 
     1      6.8029130     23  2.000                                                                 
     0     -2.7439560     23  2.200                                                                 
     0     34.0145650     23  2.200                                                                 
     2     -1.3605826     23  2.200                                                                 
  local pseudopotential read in
  partial core-charges read in
  partial kinetic energy density read in
  atomic valenz-charges read in
  non local Contribution for L=           1  read in
    real space projection operators read in
  non local Contribution for L=           1  read in
    real space projection operators read in
  non local Contribution for L=           0  read in
    real space projection operators read in
  non local Contribution for L=           0  read in
    real space projection operators read in
    PAW grid and wavefunctions read in
 
   number of l-projection  operators is LMAX  =           4
   number of lm-projection operators is LMMAX =           8
 
 POTCAR:    PAW_PBE Mn_pv 02Aug2007               
   VRHFIN =Mn: 3p4s3d                                                                               
   LEXCH  = PE                                                                                      
   EATOM  =  2025.2664 eV,  148.8529 Ry                                                             
                                                                                                    
   TITEL  = PAW_PBE Mn_pv 02Aug2007                                                                 
   LULTRA =        F    use ultrasoft PP ?                                                          
   IUNSCR =        1    unscreen: 0-lin 1-nonlin 2-no                                               
   RPACOR =    2.080    partial core radius                                                         
   POMASS =   54.938; ZVAL   =   13.000    mass and valenz                                          
   RCORE  =    2.300    outmost cutoff radius                                                       
   RWIGS  =    2.500; RWIGS  =    1.323    wigner-seitz radius (au A)                               
   ENMAX  =  269.864; ENMIN  =  202.398 eV                                                          
   ICORE  =        3    local potential                                                             
   LCOR   =        T    correct aug charges                                                         
   LPAW   =        T    paw PP                                                                      
   EAUG   =  569.085                                                                                
   DEXC   =    0.000                                                                                
   RMAX   =    2.343    core radius for proj-oper                                                   
   RAUG   =    1.300    factor for augmentation sphere                                              
   RDEP   =    2.338    radius for radial grids                                                     
   RDEPT  =    1.798    core radius for aug-charge                                                  
                                                                                                    
   Atomic configuration                                                                             
    8 entries                                                                                       
     n  l   j            E        occ.                                                              
     1  0  0.50     -6424.8287   2.0000                                                             
     2  0  0.50      -739.1154   2.0000                                                             
     2  1  1.50      -625.3949   6.0000                                                             
     3  0  0.50       -81.6100   2.0000                                                             
     3  1  1.50       -50.4667   6.0000                                                             
     3  2  2.50        -3.3745   6.0000                                                             
     4  0  0.50        -4.1331   1.0000                                                             
     4  3  2.50        -1.3606   0.0000                                                             
   Description                                                                                      
     l       E           TYP  RCUT    TYP  RCUT                                                     
     1    -50.4666628     23  2.000                                                                 
     1     -1.3605826     23  2.000                                                                 
     2     -3.3744729     23  2.300                                                                 
     2     -4.7350555     23  2.300                                                                 
     0     -4.1331431     23  2.300                                                                 
     0      7.6656591     23  2.300                                                                 
     3      9.5240782     23  2.300                                                                 
  local pseudopotential read in
  partial core-charges read in
  partial kinetic energy density read in
  atomic valenz-charges read in
  non local Contribution for L=           1  read in
    real space projection operators read in
  non local Contribution for L=           1  read in
    real space projection operators read in
  non local Contribution for L=           2  read in
    real space projection operators read in
  non local Contribution for L=           2  read in
    real space projection operators read in
  non local Contribution for L=           0  read in
    real space projection operators read in
  non local Contribution for L=           0  read in
    real space projection operators read in
    PAW grid and wavefunctions read in
 
   number of l-projection  operators is LMAX  =           6
   number of lm-projection operators is LMMAX =          18
 
 POTCAR:    PAW_PBE O 08Apr2002                   
   VRHFIN =O: s2p4                                                                                  
   LEXCH  = PE                                                                                      
   EATOM  =   432.3788 eV,   31.7789 Ry                                                             
                                                                                                    
   TITEL  = PAW_PBE O 08Apr2002                                                                     
   LULTRA =        F    use ultrasoft PP ?                                                          
   IUNSCR =        1    unscreen: 0-lin 1-nonlin 2-no                                               
   RPACOR =    1.200    partial core radius                                                         
   POMASS =   16.000; ZVAL   =    6.000    mass and valenz                                          
   RCORE  =    1.520    outmost cutoff radius                                                       
   RWIGS  =    1.550; RWIGS  =    0.820    wigner-seitz radius (au A)                               
   ENMAX  =  400.000; ENMIN  =  300.000 eV                                                          
   ICORE  =        2    local potential                                                             
   LCOR   =        T    correct aug charges                                                         
   LPAW   =        T    paw PP                                                                      
   EAUG   =  605.392                                                                                
   DEXC   =    0.000                                                                                
   RMAX   =    1.553    core radius for proj-oper                                                   
   RAUG   =    1.300    factor for augmentation sphere                                              
   RDEP   =    1.550    radius for radial grids                                                     
   RDEPT  =    1.329    core radius for aug-charge                                                  
                                                                                                    
   Atomic configuration                                                                             
    4 entries                                                                                       
     n  l   j            E        occ.                                                              
     1  0  0.50      -514.6923   2.0000                                                             
     2  0  0.50       -23.9615   2.0000                                                             
     2  1  0.50        -9.0305   4.0000                                                             
     3  2  1.50        -9.5241   0.0000                                                             
   Description                                                                                      
     l       E           TYP  RCUT    TYP  RCUT                                                     
     0    -23.9615318     23  1.200                                                                 
     0     -9.5240782     23  1.200                                                                 
     1     -9.0304911     23  1.520                                                                 
     1      8.1634956     23  1.520                                                                 
     2     -9.5240782      7  1.500                                                                 
  local pseudopotential read in
  partial core-charges read in
  partial kinetic energy density read in
  kinetic energy density of atom read in
  atomic valenz-charges read in
  non local Contribution for L=           0  read in
    real space projection operators read in
  non local Contribution for L=           0  read in
    real space projection operators read in
  non local Contribution for L=           1  read in
    real space projection operators read in
  non local Contribution for L=           1  read in
    real space projection operators read in
    PAW grid and wavefunctions read in
 
   number of l-projection  operators is LMAX  =           4
   number of lm-projection operators is LMMAX =           8
 
 Optimization of the real space projectors (new method)

 maximal supplied QI-value         = 17.01
 optimisation between [QCUT,QGAM] = [ 11.57, 23.30] = [ 37.45,152.03] Ry 
 Optimized for a Real-space Cutoff    1.45 Angstroem

   l    n(q)    QCUT    max X(q) W(low)/X(q) W(high)/X(q)  e(spline) 
   1     10    11.565     4.940    0.87E-04    0.13E-03    0.13E-06
   1     10    11.565     6.253    0.13E-03    0.19E-03    0.20E-06
   0     10    11.565    37.438    0.53E-04    0.73E-05    0.79E-07
   0     10    11.565     9.606    0.27E-04    0.60E-05    0.56E-07
 Optimization of the real space projectors (new method)

 maximal supplied QI-value         = 16.25
 optimisation between [QCUT,QGAM] = [ 11.54, 23.24] = [ 37.28,151.24] Ry 
 Optimized for a Real-space Cutoff    1.45 Angstroem

   l    n(q)    QCUT    max X(q) W(low)/X(q) W(high)/X(q)  e(spline) 
   1     10    11.539     3.658    0.56E-04    0.12E-03    0.13E-06
   1     10    11.539     5.612    0.11E-03    0.23E-03    0.24E-06
   2      9    11.539    55.373    0.45E-04    0.92E-04    0.22E-06
   2      9    11.539    50.863    0.47E-04    0.95E-04    0.22E-06
   0     10    11.539    79.536    0.46E-04    0.27E-04    0.11E-06
   0     10    11.539    38.668    0.38E-04    0.25E-04    0.10E-06
 Optimization of the real space projectors (new method)

 maximal supplied QI-value         = 24.76
 optimisation between [QCUT,QGAM] = [ 11.64, 23.27] = [ 37.91,151.63] Ry 
 Optimized for a Real-space Cutoff    1.14 Angstroem

   l    n(q)    QCUT    max X(q) W(low)/X(q) W(high)/X(q)  e(spline) 
   0      8    11.635    20.381    0.10E-03    0.33E-03    0.24E-06
   0      8    11.635    15.268    0.11E-03    0.35E-03    0.26E-06
   1      7    11.635     5.964    0.24E-03    0.31E-03    0.30E-06
   1      7    11.635     5.382    0.22E-03    0.25E-03    0.26E-06
  PAW_PBE Na_pv 19Sep2006               :
 energy of atom  1       EATOM= -766.0439
 kinetic energy error for atom=    0.0019 (will be added to EATOM!!)
  PAW_PBE Mn_pv 02Aug2007               :
 energy of atom  2       EATOM=-2025.2664
 kinetic energy error for atom=    0.0058 (will be added to EATOM!!)
  PAW_PBE O 08Apr2002                   :
 energy of atom  3       EATOM= -432.3788
 kinetic energy error for atom=    0.0208 (will be added to EATOM!!)
 
 
 POSCAR: Na6 Mn8 O16
  positions in direct lattice
  velocities in cartesian coordinates
 exchange correlation table for  LEXCH =        8
   RHO(1)=    0.500       N(1)  =     2000
   RHO(2)=  100.500       N(2)  =     4000
 


--------------------------------------------------------------------------------------------------------


 ion  position               nearest neighbor table
   1  0.521  0.489  0.250-  11 2.86   7 2.86
   2  0.163  0.328  0.750-  24 2.37  12 2.37
   3  0.837  0.143  0.250-
   4  0.999  1.000  0.497-  12 1.93  15 1.93  17 1.94  19 1.95  14 1.96  16 1.97   7 2.90   7 2.91
                             6 2.99   5 2.99   6 3.02   5 3.02
   5  0.999  0.503  0.499-  17 1.94  14 1.95  13 1.97  18 1.98  15 2.11  16 2.15   6 2.90   6 2.92
                             4 2.99   7 3.00   7 3.00   4 3.02
   6  0.497  0.001  0.506-  17 1.95  14 1.95  13 1.97  18 2.00  12 2.18  19 2.26   5 2.90   5 2.92
                             4 2.99   7 3.01   7 3.01   4 3.02
   7  0.498  0.502  0.500-  12 1.91  15 1.92  13 1.94  19 1.96  16 1.98  18 1.99   1 2.86   4 2.90
                             4 2.91   5 3.00   5 3.00   6 3.01   6 3.01
   8  0.999  1.000  0.003-  24 1.93  27 1.93  21 1.94  23 1.95  26 1.96  20 1.97  11 2.90  11 2.91
                            10 2.99   9 2.99  10 3.02   9 3.02
   9  0.999  0.503  0.001-  21 1.94  26 1.95  25 1.97  22 1.98  27 2.11  20 2.15  10 2.90  10 2.92
                             8 2.99  11 3.00  11 3.00   8 3.02
  10  0.497  0.001  0.994-  21 1.95  26 1.95  25 1.97  22 2.00  24 2.18  23 2.26   9 2.90   9 2.92
                             8 2.99  11 3.01  11 3.01   8 3.02
  11  0.498  0.502  0.000-  24 1.91  27 1.92  25 1.94  23 1.95  20 1.98  22 1.99   1 2.86   8 2.90
                             8 2.91   9 3.00   9 3.00  10 3.01  10 3.01
  12  0.313  0.188  0.591-   7 1.91   4 1.93   6 2.18   2 2.37
  13  0.334  0.657  0.584-   7 1.94   5 1.97   6 1.97
  14  0.841  0.167  0.582-   6 1.95   5 1.95   4 1.96
  15  0.821  0.677  0.587-   7 1.92   4 1.93   5 2.11
  16  0.175  0.326  0.404-   4 1.97   7 1.98   5 2.15
  17  0.166  0.839  0.419-   5 1.94   4 1.94   6 1.95
  18  0.660  0.335  0.413-   5 1.98   7 1.99   6 2.00
  19  0.680  0.819  0.403-   4 1.95   7 1.96   6 2.26
  20  0.175  0.326  0.096-   8 1.97  11 1.98   9 2.15
  21  0.166  0.839  0.081-   9 1.94   8 1.94  10 1.95
  22  0.660  0.335  0.087-   9 1.98  11 1.99  10 2.00
  23  0.680  0.819  0.097-   8 1.95  11 1.95  10 2.26
  24  0.313  0.188  0.909-  11 1.91   8 1.93  10 2.18   2 2.37
  25  0.334  0.657  0.916-  11 1.94   9 1.97  10 1.97
  26  0.841  0.168  0.918-  10 1.95   9 1.95   8 1.96
  27  0.821  0.677  0.913-  11 1.92   8 1.93   9 2.11
 
  LATTYP: Found a triclinic cell.
 ALAT       =     6.0139632648
 B/A-ratio  =     0.9667629314
 C/A-ratio  =     1.8962655919
 COS(alpha) =     0.0000323286
 COS(beta)  =     0.0000559318
 COS(gamma) =     0.4849477348
  
  Lattice vectors:
  
 A1 = (   2.9097909648,  -5.2631616597,   0.0001874005)
 A2 = (   5.8140720865,  -0.0073673242,   0.0001073963)
 A3 = (   0.0001577254,  -0.0002355865,  11.4040716063)


Analysis of symmetry for initial positions (statically):
=====================================================================
 Subroutine PRICEL returns:
 Original cell was already a primitive cell.
 

 Routine SETGRP: Setting up the symmetry group for a 
 triclinic supercell.


 Subroutine GETGRP returns: Found  1 space group operations
 (whereof  1 operations were pure point group operations)
 out of a pool of  2 trial point group operations.


The static configuration has the point symmetry C_1 .


Analysis of symmetry for dynamics (positions and initial velocities):
=====================================================================
 Subroutine PRICEL returns:
 Original cell was already a primitive cell.
 

 Routine SETGRP: Setting up the symmetry group for a 
 triclinic supercell.


 Subroutine GETGRP returns: Found  1 space group operations
 (whereof  1 operations were pure point group operations)
 out of a pool of  2 trial point group operations.


The dynamic configuration has the point symmetry C_1 .


Analysis of structural, dynamic, and magnetic symmetry:
=====================================================================
 Subroutine PRICEL returns:
 Original cell was already a primitive cell.
 

 Routine SETGRP: Setting up the symmetry group for a 
 triclinic supercell.


 Subroutine GETGRP returns: Found  1 space group operations
 (whereof  1 operations were pure point group operations)
 out of a pool of  2 trial point group operations.


The overall configuration has the point symmetry C_1 .


 Subroutine INISYM returns: Found  1 space group operations
 (whereof  1 operations are pure point group operations),
 and found     1 'primitive' translations


----------------------------------------------------------------------------------------

                                     Primitive cell                                     

  volume of cell :     348.7247

  direct lattice vectors                    reciprocal lattice vectors
    -2.904281122 -5.255794336  0.000080004    -0.172117070 -0.095156624  0.000000415
    -2.909790965  5.263161660 -0.000187400    -0.171876142  0.094976440  0.000004339
    -0.000157725  0.000235587-11.404071606     0.000001617 -0.000002228 -0.087687980

  length of vectors
     6.004849951  6.013963265 11.404071610     0.196669949  0.196371923  0.087687980

  position of ions in fractional coordinates (direct lattice)
     0.521390752  0.488630404  0.249996957
     0.162575594  0.328431079  0.750001832
     0.837468404  0.142507987  0.249996467
     0.998816784  0.999925921  0.497324093
     0.999078275  0.502820249  0.498859928
     0.496821907  0.001430748  0.505881765
     0.498479950  0.502332506  0.499912935
     0.998834212  0.999933101  0.002679047
     0.999070826  0.502812254  0.001137807
     0.496831474  0.001449863  0.994123130
     0.498481491  0.502354903  0.000086028
     0.313055365  0.188006125  0.591328480
     0.334238352  0.657025377  0.584492426
     0.841124450  0.167494038  0.581535042
     0.821352008  0.677277964  0.586878831
     0.175188722  0.325770973  0.403649367
     0.166124727  0.839280304  0.418870255
     0.659844488  0.335292122  0.413242726
     0.680114629  0.818533833  0.402927667
     0.175198849  0.325750027  0.096357784
     0.166126415  0.839274601  0.081124772
     0.659852380  0.335283228  0.086756932
     0.680108857  0.818512687  0.097077342
     0.313069925  0.188013108  0.908669982
     0.334247888  0.657032130  0.915503809
     0.841143815  0.167519164  0.918463518
     0.821359462  0.677305304  0.913121078

  ion indices of the primitive-cell ions
   primitive index   ion index
                 1           1
                 2           2
                 3           3
                 4           4
                 5           5
                 6           6
                 7           7
                 8           8
                 9           9
                10          10
                11          11
                12          12
                13          13
                14          14
                15          15
                16          16
                17          17
                18          18
                19          19
                20          20
                21          21
                22          22
                23          23
                24          24
                25          25
                26          26
                27          27

----------------------------------------------------------------------------------------

 
 
 KPOINTS: pymatgen with grid density = 1046 / numb

Automatic generation of k-mesh.
 Grid dimensions read from file:
 generate k-points for:    4    4    2

 Generating k-lattice:

  Cartesian coordinates                     Fractional coordinates (reciprocal lattice)
    -0.043029267 -0.023789156  0.000000104     0.250000000  0.000000000 -0.000000000
    -0.042969035  0.023744110  0.000001085     0.000000000  0.250000000  0.000000000
     0.000000808 -0.000001114 -0.043843990     0.000000000 -0.000000000  0.500000000

  Length of vectors
     0.049167487  0.049092981  0.043843990

  Shift w.r.t. Gamma in fractional coordinates (k-lattice)
     0.000000000  0.000000000  0.000000000

 
 Subroutine IBZKPT returns following result:
 ===========================================
 
 Found     20 irreducible k-points:
 
 Following reciprocal coordinates:
            Coordinates               Weight
  0.000000  0.000000  0.000000      1.000000
  0.250000  0.000000 -0.000000      2.000000
  0.500000  0.000000  0.000000      1.000000
 -0.000000  0.250000 -0.000000      2.000000
  0.250000  0.250000  0.000000      2.000000
  0.500000  0.250000 -0.000000      2.000000
 -0.250000  0.250000  0.000000      2.000000
 -0.000000  0.500000 -0.000000      1.000000
  0.250000  0.500000  0.000000      2.000000
  0.500000  0.500000 -0.000000      1.000000
  0.000000  0.000000  0.500000      1.000000
  0.250000 -0.000000  0.500000      2.000000
  0.500000  0.000000  0.500000      1.000000
 -0.000000  0.250000  0.500000      2.000000
  0.250000  0.250000  0.500000      2.000000
  0.500000  0.250000  0.500000      2.000000
 -0.250000  0.250000  0.500000      2.000000
 -0.000000  0.500000  0.500000      1.000000
  0.250000  0.500000  0.500000      2.000000
  0.500000  0.500000  0.500000      1.000000
 
 Following cartesian coordinates:
            Coordinates               Weight
  0.000000  0.000000  0.000000      1.000000
 -0.043029 -0.023789  0.000000      2.000000
 -0.086059 -0.047578  0.000000      1.000000
 -0.042969  0.023744  0.000001      2.000000
 -0.085998 -0.000045  0.000001      2.000000
 -0.129028 -0.023834  0.000001      2.000000
  0.000060  0.047533  0.000001      2.000000
 -0.085938  0.047488  0.000002      1.000000
 -0.128967  0.023699  0.000002      2.000000
 -0.171997 -0.000090  0.000002      1.000000
  0.000001 -0.000001 -0.043844      1.000000
 -0.043028 -0.023790 -0.043844      2.000000
 -0.086058 -0.047579 -0.043844      1.000000
 -0.042968  0.023743 -0.043843      2.000000
 -0.085997 -0.000046 -0.043843      2.000000
 -0.129027 -0.023835 -0.043843      2.000000
  0.000061  0.047532 -0.043843      2.000000
 -0.085937  0.047487 -0.043842      1.000000
 -0.128967  0.023698 -0.043842      2.000000
 -0.171996 -0.000091 -0.043842      1.000000
 
 
 Subroutine IBZKPT_HF returns following result:
 ==============================================
 
 Found     32 k-points in 1st BZ
 the following     32 k-points will be used (e.g. in the exchange kernel)
 Following reciprocal coordinates:   # in IRBZ
  0.000000  0.000000  0.000000    0.03125000   1 t-inv F
  0.250000  0.000000 -0.000000    0.03125000   2 t-inv F
  0.500000  0.000000  0.000000    0.03125000   3 t-inv F
 -0.000000  0.250000 -0.000000    0.03125000   4 t-inv F
  0.250000  0.250000  0.000000    0.03125000   5 t-inv F
  0.500000  0.250000 -0.000000    0.03125000   6 t-inv F
 -0.250000  0.250000  0.000000    0.03125000   7 t-inv F
 -0.000000  0.500000 -0.000000    0.03125000   8 t-inv F
  0.250000  0.500000  0.000000    0.03125000   9 t-inv F
  0.500000  0.500000 -0.000000    0.03125000  10 t-inv F
  0.000000  0.000000  0.500000    0.03125000  11 t-inv F
  0.250000 -0.000000  0.500000    0.03125000  12 t-inv F
  0.500000  0.000000  0.500000    0.03125000  13 t-inv F
 -0.000000  0.250000  0.500000    0.03125000  14 t-inv F
  0.250000  0.250000  0.500000    0.03125000  15 t-inv F
  0.500000  0.250000  0.500000    0.03125000  16 t-inv F
 -0.250000  0.250000  0.500000    0.03125000  17 t-inv F
 -0.000000  0.500000  0.500000    0.03125000  18 t-inv F
  0.250000  0.500000  0.500000    0.03125000  19 t-inv F
  0.500000  0.500000  0.500000    0.03125000  20 t-inv F
 -0.250000 -0.000000  0.000000    0.03125000   2 t-inv T
  0.000000 -0.250000  0.000000    0.03125000   4 t-inv T
 -0.250000 -0.250000 -0.000000    0.03125000   5 t-inv T
 -0.500000 -0.250000  0.000000    0.03125000   6 t-inv T
  0.250000 -0.250000 -0.000000    0.03125000   7 t-inv T
 -0.250000 -0.500000 -0.000000    0.03125000   9 t-inv T
 -0.250000  0.000000 -0.500000    0.03125000  12 t-inv T
  0.000000 -0.250000 -0.500000    0.03125000  14 t-inv T
 -0.250000 -0.250000 -0.500000    0.03125000  15 t-inv T
 -0.500000 -0.250000 -0.500000    0.03125000  16 t-inv T
  0.250000 -0.250000 -0.500000    0.03125000  17 t-inv T
 -0.250000 -0.500000 -0.500000    0.03125000  19 t-inv T


--------------------------------------------------------------------------------------------------------




 Dimension of arrays:
   k-points           NKPTS =     20   k-points in BZ     NKDIM =     32   number of bands    NBANDS=    192
   number of dos      NEDOS =    301   number of ions     NIONS =     27
   non local maximal  LDIM  =      6   non local SUM 2l+1 LMDIM =     18
   total plane-waves  NPLWV = 207360
   max r-space proj   IRMAX =   7577   max aug-charges    IRDMAX=  18240
   dimension x,y,z NGX =    48 NGY =   48 NGZ =   90
   dimension x,y,z NGXF=    96 NGYF=   96 NGZF=  180
   support grid    NGXF=    96 NGYF=   96 NGZF=  180
   ions per type =               3   8  16
   NGX,Y,Z   is equivalent  to a cutoff of  13.29, 13.27, 13.12 a.u.
   NGXF,Y,Z  is equivalent  to a cutoff of  26.58, 26.54, 26.24 a.u.

 SYSTEM =  unknown system                          
 POSCAR =  Na6 Mn8 O16                             

 Startparameter for this run:
   NWRITE =      2    write-flag & timer
   PREC   = accura    normal or accurate (medium, high low for compatibility)
   ISTART =      0    job   : 0-new  1-cont  2-samecut
   ICHARG =      1    charge: 1-file 2-atom 10-const
   ISPIN  =      2    spin polarized calculation?
   LNONCOLLINEAR =      F non collinear calculations
   LSORBIT =      F    spin-orbit coupling
   INIWAV =      1    electr: 0-lowe 1-rand  2-diag
   LASPH  =      F    aspherical Exc in radial PAW
 Electronic Relaxation 1
   ENCUT  =  520.0 eV  38.22 Ry    6.18 a.u.  11.17 11.18 21.20*2*pi/ulx,y,z
   ENINI  =  520.0     initial cutoff
   ENAUG  =  605.4 eV  augmentation charge cutoff
   NELM   =    100;   NELMIN=  2; NELMDL=  0     # of ELM steps 
   EDIFF  = 0.1E-02   stopping-criterion for ELM
   LREAL  =      T    real-space projection
   NLSPLINE    = F    spline interpolate recip. space projectors
   LCOMPAT=      F    compatible to vasp.4.4
   GGA_COMPAT  = T    GGA compatible to vasp.4.4-vasp.4.6
   LMAXPAW     = -100 max onsite density
   LMAXMIX     =    4 max onsite mixed and CHGCAR
   VOSKOWN=      0    Vosko Wilk Nusair interpolation
   ROPT   =   -0.00025  -0.00025  -0.00025
 Ionic relaxation
   EDIFFG = 0.1E-01   stopping-criterion for IOM
   NSW    =     99    number of steps for IOM
   NBLOCK =      1;   KBLOCK =     99    inner block; outer block 
   IBRION =      2    ionic relax: 0-MD 1-quasi-New 2-CG
   NFREE  =      1    steps in history (QN), initial steepest desc. (CG)
   ISIF   =      3    stress and relaxation
   IWAVPR =     11    prediction:  0-non 1-charg 2-wave 3-comb
   ISYM   =      3    0-nonsym 1-usesym 2-fastsym
   LCORR  =      T    Harris-Foulkes like correction to forces

   POTIM  = 0.5000    time-step for ionic-motion
   TEIN   =    0.0    initial temperature
   TEBEG  =    0.0;   TEEND  =   0.0 temperature during run
   SMASS  =  -3.00    Nose mass-parameter (am)
   estimated Nose-frequenzy (Omega)   =  0.10E-29 period in steps = 0.13E+47 mass=  -0.824E-27a.u.
   SCALEE = 1.0000    scale energy and forces
   NPACO  =    256;   APACO  = 10.0  distance and # of slots for P.C.
   PSTRESS=    0.0 pullay stress

  Mass of Ions in am
   POMASS =  22.99 54.94 16.00
  Ionic Valenz
   ZVAL   =   7.00 13.00  6.00
  Atomic Wigner-Seitz radii
   RWIGS  =  -1.00 -1.00 -1.00
  virtual crystal weights 
   VCA    =   1.00  1.00  1.00
   NELECT =     221.0000    total number of electrons
   NUPDOWN=      -1.0000    fix difference up-down

 DOS related values:
   EMIN   =  10.00;   EMAX   =-10.00  energy-range for DOS
   EFERMI =   0.00;   METHOD = LEGACY      
   ISMEAR =     0;   SIGMA  =   0.05  broadening in eV -4-tet -1-fermi 0-gaus

 Electronic relaxation 2 (details)
   IALGO  =     58    algorithm
   LDIAG  =      T    sub-space diagonalisation (order eigenvalues)
   LSUBROT=      F    optimize rotation matrix (better conditioning)
   TURBO    =      0    0=normal 1=particle mesh
   IRESTART =      0    0=no restart 2=restart with 2 vectors
   NREBOOT  =      0    no. of reboots
   NMIN     =      0    reboot dimension
   EREF     =   0.00    reference energy to select bands
   IMIX   =      4    mixing-type and parameters
     AMIX     =   0.40;   BMIX     =  1.00
     AMIX_MAG =   1.60;   BMIX_MAG =  1.00
     AMIN     =   0.10
     WC   =   100.;   INIMIX=   1;  MIXPRE=   1;  MAXMIX= -45

 Intra band minimization:
   WEIMIN = 0.0010     energy-eigenvalue tresh-hold
   EBREAK =  0.18E-05  absolut break condition
   DEPER  =   0.30     relativ break condition  

   TIME   =   0.40     timestep for ELM

  volume/ion in A,a.u.               =      12.92        87.16
  Fermi-wavevector in a.u.,A,eV,Ry     =   1.406192  2.657318 26.903841  1.977377
  Thomas-Fermi vector in A             =   2.528577
 
 Write flags
   LWAVE        =      F    write WAVECAR
   LDOWNSAMPLE  =      F    k-point downsampling of WAVECAR
   LCHARG       =      T    write CHGCAR
   LVTOT        =      F    write LOCPOT, total local potential
   LVHAR        =      F    write LOCPOT, Hartree potential only
   LELF         =      F    write electronic localiz. function (ELF)
   LORBIT       =     11    0 simple, 1 ext, 2 COOP (PROOUT), +10 PAW based schemes


 Dipole corrections
   LMONO  =      F    monopole corrections only (constant potential shift)
   LDIPOL =      F    correct potential (dipole corrections)
   IDIPOL =      0    1-x, 2-y, 3-z, 4-all directions 
   EPSILON=  1.0000000 bulk dielectric constant

 Exchange correlation treatment:
   GGA     =    --    GGA type
   LEXCH   =     8    internal setting for exchange type
   LIBXC   =     F    Libxc                    
   VOSKOWN =     0    Vosko Wilk Nusair interpolation
   EXXOEP  =     0    0=HF, 1=EXX-LHF (local Hartree Fock) 2=EXX OEP
   LHFCALC =     T    Hartree Fock is set to
   LSYMGRAD=     F    symmetrize gradient (conserves proper symmetry)
   PRECFOCK=fast      Normal, Fast or Accurate (Low or Medium for compatibility)
   LRHFCALC=     F    long range Hartree Fock
   LRSCOR  =     F    long range correlation only (use DFT for short range part)
   LTHOMAS =     F    Thomas Fermi screening in HF
   LMODELHF=     F    short range full HF, long range fraction AEXX
   FOCKCORR=     1    mode to apply convergence corrections
   LFOCKACE=     T    use Adeptively-Compressed-Exchange operator
   ENCUT4O =  -1.0   cutoff for four orbital integrals eV
   LMAXFOCK=     4    L truncation for augmentation on plane wave grid
   LMAXFOCKAE=  -1    L truncation for all-electron charge restoration on plane wave grid
   NMAXFOCKAE=   1    number of basis functions for all-electron charge restoration
   LFOCKAEDFT=     F  apply the AE augmentation even for DFT
   NKREDX  =     1    reduce k-point grid by
   NKREDY  =     1    reduce k-point grid by
   NKREDZ  =     1    reduce k-point grid by
   SHIFTRED=     F    shift reduced grid of Gamma
   HFKIDENT=     F    idential grid for each k-point
   ODDONLY =     F    use only odd q-grid points
   EVENONLY=     F    use only even q-grid points
   HFALPHA =   -1.0000 decay constant for conv. correction
   MCALPHA =    0.0000 extent of test-charge in conv. correction in multipole expansion
   AEXX    =    0.2500 exact exchange contribution
   HFSCREEN=    0.2000 screening length (either q_TF or 0.3 A-1)
   HFSCREENC=   0.2000 screening length for correlation (either q_TF or 0.3 A-1)
   HFRCUT  =    0.0000 spherical cutoff for potential kernel
   ALDAX   =    0.7500 LDA exchange part
   AGGAX   =    0.7500 GGA exchange part
   ALDAC   =    1.0000 LDA correlation
   AGGAC   =    1.0000 GGA correlation
   ENCUTFOCK=  -1.0 apply spherical cutoff to Coloumb kernel
   NBANDSGWLOW=     1    first orbital included in HF term
   NBLOCK_FOCK=    64    blocking factor in FOCK_ACC

 Linear response parameters
   LEPSILON=     F    determine dielectric tensor
   LRPA    =     F    only Hartree local field effects (RPA)
   LNABLA  =     F    use nabla operator in PAW spheres
   LVEL    =     F    velocity operator in full k-point grid
   CSHIFT  =0.1000    complex shift for real part using Kramers Kronig
   OMEGAMAX=  -1.0    maximum frequency
   DEG_THRESHOLD= 0.2000000E-02 threshold for treating states as degnerate
   RTIME   =   -0.100 relaxation time in fs
  (WPLASMAI=    0.000 imaginary part of plasma frequency in eV, 0.658/RTIME)
   DFIELD  = 0.0000000 0.0000000 0.0000000 field for delta impulse in time
 
  Optional k-point grid parameters
   LKPOINTS_OPT  =     F    use optional k-point grid
   KPOINTS_OPT_MODE=     1    mode for optional k-point grid
 
 Orbital magnetization related:
   ORBITALMAG=     F  switch on orbital magnetization
   LCHIMAG   =     F  perturbation theory with respect to B field
   DQ        =  0.001000  dq finite difference perturbation B field
   LLRAUG    =     F  two centre corrections for induced B field
   LBONE     =     F  B-component reconstruction in AE one-centre
   LVGVCALC  =     T  calculate vGv susceptibility
   LVGVAPPL  =     F  apply vGv susceptibility instead of pGv for G=0

 Random number generation:
   RANDOM_GENERATOR = DEFAULT
   PCG_SEED         = not used


--------------------------------------------------------------------------------------------------------


 conjugate gradient relaxation of ions
 charge density and potential will be updated during run
 spin polarized calculation
 Conjugate gradient for all bands (Freysoldt, et al. PRB 79, 241103 (2009))
 preconditioned conjugated gradient                                        
 perform sub-space diagonalisation
    before iterative eigenvector-optimisation
 modified Broyden-mixing scheme, WC =      100.0
 initial mixing is a Kerker type mixing with AMIX =  0.4000 and BMIX =      1.0000
 Hartree-type preconditioning will be used
 using additional bands           81
 real space projection scheme for non local part
 use partial core corrections
 no Harris-corrections to forces 
 use gradient corrections 
 use of overlap-Matrix (Vanderbilt PP)
 Gauss-broadening in eV      SIGMA  =   0.05


--------------------------------------------------------------------------------------------------------


  energy-cutoff  :      520.00
  volume of cell :      348.72
      direct lattice vectors                 reciprocal lattice vectors
    -2.904281122 -5.255794336  0.000080004    -0.172117070 -0.095156624  0.000000415
    -2.909790965  5.263161660 -0.000187400    -0.171876142  0.094976440  0.000004339
    -0.000157725  0.000235587-11.404071606     0.000001617 -0.000002228 -0.087687980

  length of vectors
     6.004849951  6.013963265 11.404071610     0.196669949  0.196371923  0.087687980


 
 k-points in units of 2pi/SCALE and weight: pymatgen with grid density = 1046 / numb
   0.00000000  0.00000000  0.00000000       0.031
  -0.04302927 -0.02378916  0.00000010       0.062
  -0.08605853 -0.04757831  0.00000021       0.031
  -0.04296904  0.02374411  0.00000108       0.062
  -0.08599830 -0.00004505  0.00000119       0.062
  -0.12902757 -0.02383420  0.00000129       0.062
   0.00006023  0.04753327  0.00000098       0.062
  -0.08593807  0.04748822  0.00000217       0.031
  -0.12896734  0.02369906  0.00000227       0.062
  -0.17199661 -0.00009009  0.00000238       0.031
   0.00000081 -0.00000111 -0.04384399       0.031
  -0.04302846 -0.02379027 -0.04384389       0.062
  -0.08605773 -0.04757943 -0.04384378       0.031
  -0.04296823  0.02374300 -0.04384291       0.062
  -0.08599749 -0.00004616 -0.04384280       0.062
  -0.12902676 -0.02383532 -0.04384270       0.062
   0.00006104  0.04753215 -0.04384301       0.062
  -0.08593726  0.04748711 -0.04384182       0.031
  -0.12896653  0.02369795 -0.04384172       0.062
  -0.17199580 -0.00009121 -0.04384161       0.031
 
 k-points in reciprocal lattice and weights: pymatgen with grid density = 1046 / numb
   0.00000000  0.00000000  0.00000000       0.031
   0.25000000  0.00000000 -0.00000000       0.062
   0.50000000  0.00000000  0.00000000       0.031
  -0.00000000  0.25000000 -0.00000000       0.062
   0.25000000  0.25000000  0.00000000       0.062
   0.50000000  0.25000000 -0.00000000       0.062
  -0.25000000  0.25000000  0.00000000       0.062
  -0.00000000  0.50000000 -0.00000000       0.031
   0.25000000  0.50000000  0.00000000       0.062
   0.50000000  0.50000000 -0.00000000       0.031
   0.00000000  0.00000000  0.50000000       0.031
   0.25000000 -0.00000000  0.50000000       0.062
   0.50000000  0.00000000  0.50000000       0.031
  -0.00000000  0.25000000  0.50000000       0.062
   0.25000000  0.25000000  0.50000000       0.062
   0.50000000  0.25000000  0.50000000       0.062
  -0.25000000  0.25000000  0.50000000       0.062
  -0.00000000  0.50000000  0.50000000       0.031
   0.25000000  0.50000000  0.50000000       0.062
   0.50000000  0.50000000  0.50000000       0.031
 
 position of ions in fractional coordinates (direct lattice) 
   0.52139075  0.48863040  0.24999696
   0.16257559  0.32843108  0.75000183
   0.83746840  0.14250799  0.24999647
   0.99881678  0.99992592  0.49732409
   0.99907827  0.50282025  0.49885993
   0.49682191  0.00143075  0.50588176
   0.49847995  0.50233251  0.49991294
   0.99883421  0.99993310  0.00267905
   0.99907083  0.50281225  0.00113781
   0.49683147  0.00144986  0.99412313
   0.49848149  0.50235490  0.00008603
   0.31305537  0.18800612  0.59132848
   0.33423835  0.65702538  0.58449243
   0.84112445  0.16749404  0.58153504
   0.82135201  0.67727796  0.58687883
   0.17518872  0.32577097  0.40364937
   0.16612473  0.83928030  0.41887025
   0.65984449  0.33529212  0.41324273
   0.68011463  0.81853383  0.40292767
   0.17519885  0.32575003  0.09635778
   0.16612642  0.83927460  0.08112477
   0.65985238  0.33528323  0.08675693
   0.68010886  0.81851269  0.09707734
   0.31306992  0.18801311  0.90866998
   0.33424789  0.65703213  0.91550381
   0.84114381  0.16751916  0.91846352
   0.82135946  0.67730530  0.91312108
 
 position of ions in cartesian coordinates  (Angst):
  -2.93611708 -0.16852286 -2.85103305
  -1.42794931  0.87429866 -8.55312314
  -2.84695156 -3.65146022 -2.85093732
  -5.81049858  0.01331334 -5.67162705
  -4.36478467 -2.60440816 -5.68904863
  -1.44715345 -2.60354433 -5.76907239
  -2.90948734  0.02406686 -5.70109717
  -5.81049207  0.01314300 -0.03065952
  -4.36466127 -2.60452834 -0.01298993
  -1.44731387 -2.60337898-11.33701188
  -2.90947816  0.02405889 -0.00103533
  -1.45635258 -0.65570868 -6.74356252
  -2.88262083  1.70148044 -6.66568986
  -2.93032622 -3.53909192 -6.63183136
  -4.35626700 -0.75209556 -6.69286942
  -1.45678640  0.79392450 -4.60329332
  -2.92466922  3.54424920 -4.77697037
  -2.89206905 -1.70321293 -4.71265969
  -4.35706998  0.73362820 -4.59511495
  -1.45670639  0.79368864 -1.09891810
  -2.92460426  3.54413074 -0.92529670
  -2.89201460 -1.70337813 -0.98939230
  -4.35694345  0.73347519 -1.10717594
  -1.45646524 -0.65567368-10.36254773
  -2.88272038  1.70154384-10.44056738
  -2.93050872 -3.53898208-10.47418782
  -4.35641965 -0.75191398-10.41335937
 


--------------------------------------------------------------------------------------------------------


 k-point   1 :   0.0000 0.0000 0.0000  plane waves:    9355
 k-point   2 :   0.2500 0.0000-0.0000  plane waves:    9381
 k-point   3 :   0.5000 0.0000 0.0000  plane waves:    9416
 k-point   4 :  -0.0000 0.2500-0.0000  plane waves:    9378
 k-point   5 :   0.2500 0.2500 0.0000  plane waves:    9393
 k-point   6 :   0.5000 0.2500-0.0000  plane waves:    9402
 k-point   7 :  -0.2500 0.2500 0.0000  plane waves:    9382
 k-point   8 :  -0.0000 0.5000-0.0000  plane waves:    9402
 k-point   9 :   0.2500 0.5000 0.0000  plane waves:    9411
 k-point  10 :   0.5000 0.5000-0.0000  plane waves:    9410
 k-point  11 :   0.0000 0.0000 0.5000  plane waves:    9390
 k-point  12 :   0.2500-0.0000 0.5000  plane waves:    9411
 k-point  13 :   0.5000 0.0000 0.5000  plane waves:    9376
 k-point  14 :  -0.0000 0.2500 0.5000  plane waves:    9398
 k-point  15 :   0.2500 0.2500 0.5000  plane waves:    9428
 k-point  16 :   0.5000 0.2500 0.5000  plane waves:    9372
 k-point  17 :  -0.2500 0.2500 0.5000  plane waves:    9369
 k-point  18 :  -0.0000 0.5000 0.5000  plane waves:    9372
 k-point  19 :   0.2500 0.5000 0.5000  plane waves:    9372
 k-point  20 :   0.5000 0.5000 0.5000  plane waves:    9440

 maximum and minimum number of plane-waves per node :      9440     9355

 maximum number of plane-waves:      9440
 maximum index in each direction: 
   IXMAX=   11   IYMAX=   11   IZMAX=   21
   IXMIN=  -11   IYMIN=  -11   IZMIN=  -21


 serial   3D FFT for wavefunctions
 parallel 3D FFT for charge:
    minimum data exchange during FFTs selected (reduces bandwidth)


 FFT grid for exact exchange (Hartree Fock) 
  NGX = 24; NGY = 24; NGZ = 48

 
 Radii for the augmentation spheres in the non-local exchange
 for species   1 augmentation radius   1.249 (default was   0.925)
       energy cutoff for augmentation   2080.0
 for species   2 augmentation radius   1.293 (default was   0.958)
       energy cutoff for augmentation   2080.0
 for species   3 augmentation radius   0.974 (default was   0.722)
       energy cutoff for augmentation   2080.0
 Maximum index for augmentation-charges in exchange          713
  SETUP_FOCK is finished

 total amount of memory used by VASP MPI-rank0   129587. kBytes
=======================================================================

   base      :      30000. kBytes
   nonlr-proj:      20468. kBytes
   fftplans  :       1955. kBytes
   grid      :      19731. kBytes
   one-center:        839. kBytes
   HF        :        194. kBytes
   wavefun   :      56400. kBytes
 
     INWAV:  cpu time      0.0000: real time      0.0001
 Broyden mixing: mesh for mixing (old mesh)
   NGX = 23   NGY = 23   NGZ = 43
  (NGX  = 96   NGY  = 96   NGZ  =180)
  gives a total of  22747 points

 initial charge density was supplied:
 charge density of overlapping atoms calculated
 number of electron     221.0000000 magnetization      35.4000000
 charge density for first step will be calculated from the start-wavefunctions


--------------------------------------------------------------------------------------------------------


 Maximum index for non-local projection operator         7329
 Maximum index for augmentation-charges          724 (set IRDMAX)


--------------------------------------------------------------------------------------------------------


 First call to EWALD:  gamma=   0.252
 Maximum number of real-space cells 4x 4x 2
 Maximum number of reciprocal cells 2x 2x 4

    FEWALD:  cpu time      0.0019: real time      0.0019


--------------------------------------- Ionic step        1  -------------------------------------------




--------------------------------------- Iteration      1(   1)  ---------------------------------------


    POTLOK:  cpu time      0.0717: real time      0.1352
    SETDIJ:  cpu time      0.0157: real time      0.0164
    TRIAL :  cpu time     12.9954: real time     13.0637
    CORREC:  cpu time      0.0008: real time      0.0008
    --------------------------------------------
      LOOP:  cpu time     13.1076: real time     13.2733

 eigenvalue-minimisations  : 15360
 total energy-change (2. order) :-0.8252107E+03  (-0.1368467E+05)
 number of electron     221.0000000 magnetization      35.4000000
 augmentation part      221.0000000 magnetization      35.4000000

 Free energy of the ion-electron system (eV)
  ---------------------------------------------------
  alpha Z        PSCENC =       787.92050099
  Ewald energy   TEWEN  =    -12493.06100485
  -Hartree energ DENC   =    -11220.97916745
  -exchange      EXHF   =         0.00000000
  -V(xc)+E(xc)   XCENC  =      1070.74108611
  PAW double counting   =     20214.75774595   -23688.84746502
  entropy T*S    EENTRO =        -0.01303327
  eigenvalues    EBANDS =      -817.06696901
  atomic energy  EATOM  =     25321.33763079
  ---------------------------------------------------
  free energy    TOTEN  =      -825.21067577 eV

  energy without entropy =     -825.19764250  energy(sigma->0) =     -825.20415913
  exchange ACFDT corr.  =         0.00000000  see jH, gK, PRB 81, 115126


--------------------------------------------------------------------------------------------------------




--------------------------------------- Iteration      1(   2)  ---------------------------------------


    TRIAL :  cpu time     14.1970: real time     14.2315
    CORREC:  cpu time      0.0008: real time      0.0008
    --------------------------------------------
      LOOP:  cpu time     14.1990: real time     14.2598

 eigenvalue-minimisations  : 17088
 total energy-change (2. order) :-0.2396656E+04  (-0.2226723E+04)
 number of electron     221.0000000 magnetization      35.4000000
 augmentation part      221.0000000 magnetization      35.4000000

 Free energy of the ion-electron system (eV)
  ---------------------------------------------------
  alpha Z        PSCENC =       787.92050099
  Ewald energy   TEWEN  =    -12493.06100485
  -Hartree energ DENC   =    -11220.97916745
  -exchange      EXHF   =         0.00000000
  -V(xc)+E(xc)   XCENC  =      1070.74108611
  PAW double counting   =     20214.75774595   -23688.84746502
  entropy T*S    EENTRO =        -0.01028624
  eigenvalues    EBANDS =     -3213.72544601
  atomic energy  EATOM  =     25321.33763079
  ---------------------------------------------------
  free energy    TOTEN  =     -3221.86640574 eV

  energy without entropy =    -3221.85611950  energy(sigma->0) =    -3221.86126262
  exchange ACFDT corr.  =         0.00000000  see jH, gK, PRB 81, 115126


--------------------------------------------------------------------------------------------------------




--------------------------------------- Iteration      1(   3)  ---------------------------------------


    TRIAL :  cpu time     17.5761: real time     17.6196
    CORREC:  cpu time      0.0008: real time      0.0008
    --------------------------------------------
      LOOP:  cpu time     17.5914: real time     17.6402

 eigenvalue-minimisations  : 19584
 total energy-change (2. order) :-0.1575685E+03  (-0.1563102E+03)
 number of electron     221.0000000 magnetization      35.4000000
 augmentation part      221.0000000 magnetization      35.4000000

 Free energy of the ion-electron system (eV)
  ---------------------------------------------------
  alpha Z        PSCENC =       787.92050099
  Ewald energy   TEWEN  =    -12493.06100485
  -Hartree energ DENC   =    -11220.97916745
  -exchange      EXHF   =         0.00000000
  -V(xc)+E(xc)   XCENC  =      1070.74108611
  PAW double counting   =     20214.75774595   -23688.84746502
  entropy T*S    EENTRO =        -0.01485033
  eigenvalues    EBANDS =     -3371.28942801
  atomic energy  EATOM  =     25321.33763079
  ---------------------------------------------------
  free energy    TOTEN  =     -3379.43495182 eV

  energy without entropy =    -3379.42010149  energy(sigma->0) =    -3379.42752666
  exchange ACFDT corr.  =         0.00000000  see jH, gK, PRB 81, 115126


--------------------------------------------------------------------------------------------------------




--------------------------------------- Iteration      1(   4)  ---------------------------------------


    TRIAL :  cpu time     13.3274: real time     13.3596
    CORREC:  cpu time      0.0008: real time      0.0008
    --------------------------------------------
      LOOP:  cpu time     13.3284: real time     13.3607

 eigenvalue-minimisations  : 16064
 total energy-change (2. order) :-0.1860530E+01  (-0.1860399E+01)
 number of electron     221.0000000 magnetization      35.4000000
 augmentation part      221.0000000 magnetization      35.4000000

 Free energy of the ion-electron system (eV)
  ---------------------------------------------------
  alpha Z        PSCENC =       787.92050099
  Ewald energy   TEWEN  =    -12493.06100485
  -Hartree energ DENC   =    -11220.97916745
  -exchange      EXHF   =         0.00000000
  -V(xc)+E(xc)   XCENC  =      1070.74108611
  PAW double counting   =     20214.75774595   -23688.84746502
  entropy T*S    EENTRO =        -0.01503750
  eigenvalues    EBANDS =     -3373.14977117
  atomic energy  EATOM  =     25321.33763079
  ---------------------------------------------------
  free energy    TOTEN  =     -3381.29548214 eV

  energy without entropy =    -3381.28044465  energy(sigma->0) =    -3381.28796340
  exchange ACFDT corr.  =         0.00000000  see jH, gK, PRB 81, 115126


--------------------------------------------------------------------------------------------------------




--------------------------------------- Iteration      1(   5)  ---------------------------------------


    POTLOK:  cpu time      0.1039: real time      0.1042
    SETDIJ:  cpu time      0.0678: real time      0.0680
    TRIAL :  cpu time    584.1679: real time    585.9098
    CORREC:  cpu time      0.0008: real time      0.0008
    CHARGE:  cpu time      0.4891: real time      0.4910
    --------------------------------------------
      LOOP:  cpu time    584.8299: real time    586.5741

 eigenvalue-minimisations  : 16896
 total energy-change (2. order) : 0.3038248E+04  (-0.2778149E+01)
 number of electron     220.9999982 magnetization      27.0000008
 augmentation part       77.2466692 magnetization      17.1913260

 Free energy of the ion-electron system (eV)
  ---------------------------------------------------
  alpha Z        PSCENC =       787.92050099
  Ewald energy   TEWEN  =    -12493.06100485
  -Hartree energ DENC   =    -11220.97916745
  -exchange      EXHF   =       703.33001742
  -V(xc)+E(xc)   XCENC  =       817.42278851
  PAW double counting   =     20458.22491388   -21031.31602309
  entropy T*S    EENTRO =        -0.01138848
  eigenvalues    EBANDS =     -3685.91589142
  atomic energy  EATOM  =     25321.33763079
  ---------------------------------------------------
  free energy    TOTEN  =      -343.04762370 eV

  energy without entropy =     -343.03623522  energy(sigma->0) =     -343.04192946
  exchange ACFDT corr.  =        -0.16877536  see jH, gK, PRB 81, 115126


--------------------------------------------------------------------------------------------------------




--------------------------------------- Iteration      1(   6)  ---------------------------------------


    POTLOK:  cpu time      0.1062: real time      0.1064
    SETDIJ:  cpu time      0.0667: real time      0.0669
    TRIAL :  cpu time    574.2474: real time    575.9184
    CORREC:  cpu time    570.1747: real time    571.6017
    CHARGE:  cpu time      0.4940: real time      0.4952
    --------------------------------------------
      LOOP:  cpu time   1145.0902: real time   1148.1896

 eigenvalue-minimisations  :     0
 total energy-change (2. order) : 0.2907020E+03  (-0.1574857E+03)
 number of electron     220.9999989 magnetization      27.0000009
 augmentation part       81.3442642 magnetization      19.6230628

 Free energy of the ion-electron system (eV)
  ---------------------------------------------------
  alpha Z        PSCENC =       787.92050099
  Ewald energy   TEWEN  =    -12493.06100485
  -Hartree energ DENC   =    -10401.22619532
  -exchange      EXHF   =       707.64254055
  -V(xc)+E(xc)   XCENC  =       826.59019954
  PAW double counting   =     24315.93644901   -24890.78190007
  entropy T*S    EENTRO =        -0.00842750
  eigenvalues    EBANDS =     -4226.69246886
  atomic energy  EATOM  =     25321.33763079
  ---------------------------------------------------
  free energy    TOTEN  =       -52.34563671 eV

  energy without entropy =      -52.33720922  energy(sigma->0) =      -52.34142296
  exchange ACFDT corr.  =        -0.10844011  see jH, gK, PRB 81, 115126


--------------------------------------------------------------------------------------------------------




--------------------------------------- Iteration      1(   7)  ---------------------------------------


    POTLOK:  cpu time      0.1162: real time      0.1165
    SETDIJ:  cpu time      0.0657: real time      0.0658
    TRIAL :  cpu time    573.7049: real time    575.3306
    CORREC:  cpu time    569.2844: real time    570.9051
    CHARGE:  cpu time      0.4919: real time      0.4931
    --------------------------------------------
      LOOP:  cpu time   1143.6646: real time   1146.9493

 eigenvalue-minimisations  :     0
 total energy-change (2. order) :-0.1578833E+03  (-0.3277183E+02)
 number of electron     220.9999991 magnetization      27.0000009
 augmentation part       80.6758514 magnetization      20.0328136

 Free energy of the ion-electron system (eV)
  ---------------------------------------------------
  alpha Z        PSCENC =       787.92050099
  Ewald energy   TEWEN  =    -12493.06100485
  -Hartree energ DENC   =    -10714.21923378
  -exchange      EXHF   =       687.46923745
  -V(xc)+E(xc)   XCENC  =       822.04759177
  PAW double counting   =     27436.54408806   -28122.52199371
  entropy T*S    EENTRO =        -0.00482152
  eigenvalues    EBANDS =     -3935.73730302
  atomic energy  EATOM  =     25321.33763079
  ---------------------------------------------------
  free energy    TOTEN  =      -210.22891380 eV

  energy without entropy =     -210.22409228  energy(sigma->0) =     -210.22650304
  exchange ACFDT corr.  =        -0.73642891  see jH, gK, PRB 81, 115126


--------------------------------------------------------------------------------------------------------




--------------------------------------- Iteration      1(   8)  ---------------------------------------


    POTLOK:  cpu time      0.1054: real time      0.1057
    SETDIJ:  cpu time      0.0665: real time      0.0667
    TRIAL :  cpu time    574.9334: real time    576.6242
    CORREC:  cpu time    571.1250: real time    572.7068
    CHARGE:  cpu time      0.4921: real time      0.4933
    --------------------------------------------
      LOOP:  cpu time   1146.7231: real time   1149.9972

 eigenvalue-minimisations  :     0
 total energy-change (2. order) :-0.3277243E+02  (-0.1214108E+02)
 number of electron     220.9999991 magnetization      27.0000009
 augmentation part       80.2423753 magnetization      19.9418580

 Free energy of the ion-electron system (eV)
  ---------------------------------------------------
  alpha Z        PSCENC =       787.92050099
  Ewald energy   TEWEN  =    -12493.06100485
  -Hartree energ DENC   =    -10845.53983930
  -exchange      EXHF   =       675.80320712
  -V(xc)+E(xc)   XCENC  =       816.44217282
  PAW double counting   =     28131.21859811   -28797.02818803
  entropy T*S    EENTRO =        -0.00557847
  eigenvalues    EBANDS =     -3840.08959597
  atomic energy  EATOM  =     25321.33763079
  ---------------------------------------------------
  free energy    TOTEN  =      -243.00133984 eV

  energy without entropy =     -242.99576138  energy(sigma->0) =     -242.99855061
  exchange ACFDT corr.  =        -0.54848843  see jH, gK, PRB 81, 115126


--------------------------------------------------------------------------------------------------------




--------------------------------------- Iteration      1(   9)  ---------------------------------------


    POTLOK:  cpu time      0.1155: real time      0.1158
    SETDIJ:  cpu time      0.0658: real time      0.0659
    TRIAL :  cpu time    572.3372: real time    575.0764
    CORREC:  cpu time    568.9102: real time    570.9126
    CHARGE:  cpu time      0.4913: real time      0.4925
    --------------------------------------------
      LOOP:  cpu time   1141.9299: real time   1146.6962

 eigenvalue-minimisations  :     0
 total energy-change (2. order) :-0.1147244E+02  (-0.7885318E+01)
 number of electron     220.9999990 magnetization      27.0000009
 augmentation part       80.2132433 magnetization      19.7187876

 Free energy of the ion-electron system (eV)
  ---------------------------------------------------
  alpha Z        PSCENC =       787.92050099
  Ewald energy   TEWEN  =    -12493.06100485
  -Hartree energ DENC   =    -10932.98810873
  -exchange      EXHF   =       673.10100226
  -V(xc)+E(xc)   XCENC  =       816.35955907
  PAW double counting   =     27644.64102051   -28284.74701623
  entropy T*S    EENTRO =        -0.00753880
  eigenvalues    EBANDS =     -3787.03178125
  atomic energy  EATOM  =     25321.33763079
  ---------------------------------------------------
  free energy    TOTEN  =      -254.47377590 eV

  energy without entropy =     -254.46623711  energy(sigma->0) =     -254.47000651
  exchange ACFDT corr.  =        -1.49738774  see jH, gK, PRB 81, 115126


--------------------------------------------------------------------------------------------------------




--------------------------------------- Iteration      1(  10)  ---------------------------------------


    POTLOK:  cpu time      0.1051: real time      0.1054
    SETDIJ:  cpu time      0.0666: real time      0.0667
    TRIAL :  cpu time    574.5107: real time    575.9390
    CORREC:  cpu time    569.4578: real time    570.9440
    CHARGE:  cpu time      0.4975: real time      0.4988
    --------------------------------------------
      LOOP:  cpu time   1144.6383: real time   1147.5546

 eigenvalue-minimisations  :     0
 total energy-change (2. order) :-0.6767287E+01  (-0.3277225E+01)
 number of electron     220.9999990 magnetization      27.0000009
 augmentation part       80.5855269 magnetization      19.4606295

 Free energy of the ion-electron system (eV)
  ---------------------------------------------------
  alpha Z        PSCENC =       787.92050099
  Ewald energy   TEWEN  =    -12493.06100485
  -Hartree energ DENC   =    -10996.69133142
  -exchange      EXHF   =       672.25429506
  -V(xc)+E(xc)   XCENC  =       817.84852566
  PAW double counting   =     27046.03486189   -27669.88787912
  entropy T*S    EENTRO =        -0.00836815
  eigenvalues    EBANDS =     -3746.98912281
  atomic energy  EATOM  =     25321.33763079
  ---------------------------------------------------
  free energy    TOTEN  =      -261.24106260 eV

  energy without entropy =     -261.23269445  energy(sigma->0) =     -261.23687853
  exchange ACFDT corr.  =        -1.82277829  see jH, gK, PRB 81, 115126


--------------------------------------------------------------------------------------------------------




--------------------------------------- Iteration      1(  11)  ---------------------------------------


    POTLOK:  cpu time      0.1048: real time      0.1051
    SETDIJ:  cpu time      0.0665: real time      0.0667
    TRIAL :  cpu time    573.3784: real time    575.4200
    CORREC:  cpu time    572.0087: real time    573.6654
    CHARGE:  cpu time      0.4967: real time      0.4978
    --------------------------------------------
      LOOP:  cpu time   1146.0556: real time   1149.7579

 eigenvalue-minimisations  :     0
 total energy-change (2. order) :-0.3386989E+01  (-0.1312839E+01)
 number of electron     220.9999990 magnetization      27.0000009
 augmentation part       80.8977639 magnetization      19.3455356

 Free energy of the ion-electron system (eV)
  ---------------------------------------------------
  alpha Z        PSCENC =       787.92050099
  Ewald energy   TEWEN  =    -12493.06100485
  -Hartree energ DENC   =    -11040.78204753
  -exchange      EXHF   =       672.62549807
  -V(xc)+E(xc)   XCENC  =       820.03612515
  PAW double counting   =     26521.25742785   -27141.27512186
  entropy T*S    EENTRO =        -0.01297491
  eigenvalues    EBANDS =     -3712.67869233
  atomic energy  EATOM  =     25321.33763079
  ---------------------------------------------------
  free energy    TOTEN  =      -264.62805187 eV

  energy without entropy =     -264.61507696  energy(sigma->0) =     -264.62156441
  exchange ACFDT corr.  =        -0.54049704  see jH, gK, PRB 81, 115126


--------------------------------------------------------------------------------------------------------




--------------------------------------- Iteration      1(  12)  ---------------------------------------


    POTLOK:  cpu time      0.1046: real time      0.1097
    SETDIJ:  cpu time      0.0666: real time      0.0667
    TRIAL :  cpu time    574.5698: real time    576.3590
    CORREC:  cpu time    572.1739: real time    573.6838
    CHARGE:  cpu time      0.4945: real time      0.4956
    --------------------------------------------
      LOOP:  cpu time   1147.4099: real time   1150.7155

 eigenvalue-minimisations  :     0
 total energy-change (2. order) :-0.1316438E+01  (-0.5026763E+00)
 number of electron     220.9999990 magnetization      27.0000009
 augmentation part       81.0090963 magnetization      19.3141682

 Free energy of the ion-electron system (eV)
  ---------------------------------------------------
  alpha Z        PSCENC =       787.92050099
  Ewald energy   TEWEN  =    -12493.06100485
  -Hartree energ DENC   =    -11042.87063398
  -exchange      EXHF   =       672.61805290
  -V(xc)+E(xc)   XCENC  =       820.76372558
  PAW double counting   =     26268.47715746   -26891.53818461
  entropy T*S    EENTRO =        -0.00713905
  eigenvalues    EBANDS =     -3709.57875924
  atomic energy  EATOM  =     25321.33763079
  ---------------------------------------------------
  free energy    TOTEN  =      -265.94448986 eV

  energy without entropy =     -265.93735081  energy(sigma->0) =     -265.94092034
  exchange ACFDT corr.  =        -0.32619926  see jH, gK, PRB 81, 115126


--------------------------------------------------------------------------------------------------------




--------------------------------------- Iteration      1(  13)  ---------------------------------------


    POTLOK:  cpu time      0.1054: real time      0.1057
    SETDIJ:  cpu time      0.0663: real time      0.0665
    TRIAL :  cpu time    572.5910: real time    574.3026
    CORREC:  cpu time    571.0737: real time    572.5427
    CHARGE:  cpu time      0.4971: real time      0.4983
    --------------------------------------------
      LOOP:  cpu time   1144.3347: real time   1147.5169

 eigenvalue-minimisations  :     0
 total energy-change (2. order) :-0.2780855E+00  (-0.3186758E+00)
 number of electron     220.9999990 magnetization      27.0000009
 augmentation part       80.9984453 magnetization      19.3269939

 Free energy of the ion-electron system (eV)
  ---------------------------------------------------
  alpha Z        PSCENC =       787.92050099
  Ewald energy   TEWEN  =    -12493.06100485
  -Hartree energ DENC   =    -11035.40399249
  -exchange      EXHF   =       672.43063267
  -V(xc)+E(xc)   XCENC  =       820.82501280
  PAW double counting   =     26161.19963642   -26785.76539715
  entropy T*S    EENTRO =        -0.00995795
  eigenvalues    EBANDS =     -3715.69845553
  atomic energy  EATOM  =     25321.33763079
  ---------------------------------------------------
  free energy    TOTEN  =      -266.22257539 eV

  energy without entropy =     -266.21261744  energy(sigma->0) =     -266.21759641
  exchange ACFDT corr.  =        -0.55905294  see jH, gK, PRB 81, 115126


--------------------------------------------------------------------------------------------------------




--------------------------------------- Iteration      1(  14)  ---------------------------------------


    POTLOK:  cpu time      0.1047: real time      0.1050
    SETDIJ:  cpu time      0.0664: real time      0.0665
    TRIAL :  cpu time    574.8680: real time    576.3537
    CORREC:  cpu time    572.1468: real time    573.7756
    CHARGE:  cpu time      0.4951: real time      0.4962
    --------------------------------------------
      LOOP:  cpu time   1147.6815: real time   1150.7977

 eigenvalue-minimisations  :     0
 total energy-change (2. order) :-0.3343568E+00  (-0.2376795E+00)
 number of electron     220.9999990 magnetization      27.0000009
 augmentation part       80.9194948 magnetization      19.3804820

 Free energy of the ion-electron system (eV)
  ---------------------------------------------------
  alpha Z        PSCENC =       787.92050099
  Ewald energy   TEWEN  =    -12493.06100485
  -Hartree energ DENC   =    -11014.78007866
  -exchange      EXHF   =       672.00927323
  -V(xc)+E(xc)   XCENC  =       820.39426639
  PAW double counting   =     26095.53951469   -26720.72268677
  entropy T*S    EENTRO =        -0.00707235
  eigenvalues    EBANDS =     -3735.18439005
  atomic energy  EATOM  =     25321.33763079
  ---------------------------------------------------
  free energy    TOTEN  =      -266.55693219 eV

  energy without entropy =     -266.54985985  energy(sigma->0) =     -266.55339602
  exchange ACFDT corr.  =        -0.27475762  see jH, gK, PRB 81, 115126


--------------------------------------------------------------------------------------------------------




--------------------------------------- Iteration      1(  15)  ---------------------------------------


    POTLOK:  cpu time      0.1047: real time      0.1049
    SETDIJ:  cpu time      0.0660: real time      0.0662
    TRIAL :  cpu time    574.3946: real time    576.0023
    CORREC:  cpu time    569.6506: real time    571.6679
    CHARGE:  cpu time      0.4969: real time      0.4981
    --------------------------------------------
      LOOP:  cpu time   1144.7132: real time   1148.3399

 eigenvalue-minimisations  :     0
 total energy-change (2. order) :-0.2286296E+00  (-0.1261493E+00)
 number of electron     220.9999990 magnetization      27.0000009
 augmentation part       80.8607498 magnetization      19.4484786

 Free energy of the ion-electron system (eV)
  ---------------------------------------------------
  alpha Z        PSCENC =       787.92050099
  Ewald energy   TEWEN  =    -12493.06100485
  -Hartree energ DENC   =    -10997.94873037
  -exchange      EXHF   =       671.79876795
  -V(xc)+E(xc)   XCENC  =       819.97601606
  PAW double counting   =     26086.26168674   -26711.12776917
  entropy T*S    EENTRO =        -0.00745123
  eigenvalues    EBANDS =     -3751.93558758
  atomic energy  EATOM  =     25321.33763079
  ---------------------------------------------------
  free energy    TOTEN  =      -266.78556179 eV

  energy without entropy =     -266.77811056  energy(sigma->0) =     -266.78183618
  exchange ACFDT corr.  =        -0.19731506  see jH, gK, PRB 81, 115126


--------------------------------------------------------------------------------------------------------




--------------------------------------- Iteration      1(  16)  ---------------------------------------


    POTLOK:  cpu time      0.1043: real time      0.1046
    SETDIJ:  cpu time      0.0664: real time      0.0665
    TRIAL :  cpu time    575.7744: real time    577.3442
    CORREC:  cpu time    569.7352: real time    572.1094
    CHARGE:  cpu time      0.4958: real time      0.4970
    --------------------------------------------
      LOOP:  cpu time   1146.1767: real time   1150.1223

 eigenvalue-minimisations  :     0
 total energy-change (2. order) :-0.1263285E+00  (-0.8784026E-01)
 number of electron     220.9999990 magnetization      27.0000009
 augmentation part       80.8306217 magnetization      19.5190887

 Free energy of the ion-electron system (eV)
  ---------------------------------------------------
  alpha Z        PSCENC =       787.92050099
  Ewald energy   TEWEN  =    -12493.06100485
  -Hartree energ DENC   =    -10993.88271332
  -exchange      EXHF   =       671.90458984
  -V(xc)+E(xc)   XCENC  =       819.90575968
  PAW double counting   =     26115.89189299   -26740.34610412
  entropy T*S    EENTRO =        -0.00634162
  eigenvalues    EBANDS =     -3756.57499107
  atomic energy  EATOM  =     25321.33763079
  ---------------------------------------------------
  free energy    TOTEN  =      -266.91189030 eV

  energy without entropy =     -266.90554868  energy(sigma->0) =     -266.90871949
  exchange ACFDT corr.  =        -0.22964690  see jH, gK, PRB 81, 115126


--------------------------------------------------------------------------------------------------------




--------------------------------------- Iteration      1(  17)  ---------------------------------------


    POTLOK:  cpu time      0.1048: real time      0.1051
    SETDIJ:  cpu time      0.0663: real time      0.0664
    TRIAL :  cpu time    575.6870: real time    577.9000
    CORREC:  cpu time    570.3111: real time    572.0167
    CHARGE:  cpu time      0.4917: real time      0.4929
    --------------------------------------------
      LOOP:  cpu time   1146.6616: real time   1150.5817

 eigenvalue-minimisations  :     0
 total energy-change (2. order) :-0.8495232E-01  (-0.6673145E-01)
 number of electron     220.9999990 magnetization      27.0000009
 augmentation part       80.8588637 magnetization      19.6003459

 Free energy of the ion-electron system (eV)
  ---------------------------------------------------
  alpha Z        PSCENC =       787.92050099
  Ewald energy   TEWEN  =    -12493.06100485
  -Hartree energ DENC   =    -10994.89577323
  -exchange      EXHF   =       672.11350035
  -V(xc)+E(xc)   XCENC  =       819.99321940
  PAW double counting   =     26155.17895927   -26779.48325728
  entropy T*S    EENTRO =        -0.00570627
  eigenvalues    EBANDS =     -3756.09427645
  atomic energy  EATOM  =     25321.33763079
  ---------------------------------------------------
  free energy    TOTEN  =      -266.99684262 eV

  energy without entropy =     -266.99113635  energy(sigma->0) =     -266.99398948
  exchange ACFDT corr.  =        -0.24736913  see jH, gK, PRB 81, 115126


--------------------------------------------------------------------------------------------------------




--------------------------------------- Iteration      1(  18)  ---------------------------------------


    POTLOK:  cpu time      0.1050: real time      0.1053
    SETDIJ:  cpu time      0.0664: real time      0.0666
    TRIAL :  cpu time    573.1197: real time    574.5487
    CORREC:  cpu time    570.5462: real time    571.9382
    CHARGE:  cpu time      0.4987: real time      0.4998
    --------------------------------------------
      LOOP:  cpu time   1144.3366: real time   1147.1592

 eigenvalue-minimisations  :     0
 total energy-change (2. order) :-0.6710916E-01  (-0.2594523E-01)
 number of electron     220.9999990 magnetization      27.0000009
 augmentation part       80.8739031 magnetization      19.6347479

 Free energy of the ion-electron system (eV)
  ---------------------------------------------------
  alpha Z        PSCENC =       787.92050099
  Ewald energy   TEWEN  =    -12493.06100485
  -Hartree energ DENC   =    -11002.53629101
  -exchange      EXHF   =       672.42675503
  -V(xc)+E(xc)   XCENC  =       820.31011336
  PAW double counting   =     26200.14070904   -26824.91010088
  entropy T*S    EENTRO =        -0.00537354
  eigenvalues    EBANDS =     -3748.68655798
  atomic energy  EATOM  =     25321.33763079
  ---------------------------------------------------
  free energy    TOTEN  =      -267.06395178 eV

  energy without entropy =     -267.05857824  energy(sigma->0) =     -267.06126501
  exchange ACFDT corr.  =        -0.01875802  see jH, gK, PRB 81, 115126


--------------------------------------------------------------------------------------------------------




--------------------------------------- Iteration      1(  19)  ---------------------------------------


    POTLOK:  cpu time      0.1062: real time      0.1065
    SETDIJ:  cpu time      0.0663: real time      0.0665
    TRIAL :  cpu time    575.4170: real time    576.8817
    CORREC:  cpu time    569.9301: real time    571.7812
    CHARGE:  cpu time      0.4965: real time      0.5000
    --------------------------------------------
      LOOP:  cpu time   1146.0173: real time   1149.3371

 eigenvalue-minimisations  :     0
 total energy-change (2. order) :-0.2577054E-01  (-0.2697213E-01)
 number of electron     220.9999990 magnetization      27.0000009
 augmentation part       80.8828557 magnetization      19.6691080

 Free energy of the ion-electron system (eV)
  ---------------------------------------------------
  alpha Z        PSCENC =       787.92050099
  Ewald energy   TEWEN  =    -12493.06100485
  -Hartree energ DENC   =    -11004.02942610
  -exchange      EXHF   =       672.54127944
  -V(xc)+E(xc)   XCENC  =       820.42966791
  PAW double counting   =     26209.06034450   -26833.93994681
  entropy T*S    EENTRO =        -0.00518135
[...]
    146      13.5520      0.00000
    147      13.6989      0.00000
    148      14.4069      0.00000
    149      14.6034      0.00000
    150      15.4202      0.00000
    151      15.5040      0.00000
    152      15.7518      0.00000
    153      15.8363      0.00000
    154      16.0014      0.00000
    155      16.1433      0.00000
    156      16.2352      0.00000
    157      16.3768      0.00000
    158      16.5287      0.00000
    159      16.7411      0.00000
    160      16.7423      0.00000
    161      17.2116      0.00000
    162      17.2376      0.00000
    163      17.6489      0.00000
    164      17.7391      0.00000
    165      17.9650      0.00000
    166      18.0940      0.00000
    167      18.2214      0.00000
    168      18.2809      0.00000
    169      18.3551      0.00000
    170      18.3865      0.00000
    171      18.6196      0.00000
    172      18.7012      0.00000
    173      18.7250      0.00000
    174      18.8165      0.00000
    175      18.9797      0.00000
    176      18.9995      0.00000
    177      19.1216      0.00000
    178      19.2418      0.00000
    179      19.2502      0.00000
    180      19.7662      0.00000
    181      20.1030      0.00000
    182      20.2576      0.00000
    183      20.3517      0.00000
    184      20.4957      0.00000
    185      20.5106      0.00000
    186      20.5769      0.00000
    187      20.8549      0.00000
    188      21.2145      0.00000
    189      21.3722      0.00000
    190      21.8483      0.00000
    191      21.9468      0.00000
    192      22.0431      0.00000


--------------------------------------------------------------------------------------------------------


 soft charge-density along one line, spin component           1
         0         1         2         3         4         5         6         7         8         9
 total charge-density along one line
 
 soft charge-density along one line, spin component           2
         0         1         2         3         4         5         6         7         8         9
 total charge-density along one line
 
 pseudopotential strength for first ion, spin component:           1
-21.533   0.000  -0.002   0.268  -0.000   0.001  -0.001  -0.002
  0.000 -21.517  -0.000  -0.000   0.262   0.000   0.000   0.000
 -0.002  -0.000 -21.527   0.001   0.000   0.266   0.003   0.008
  0.268  -0.000   0.001   7.383   0.000  -0.000   0.000  -0.000
 -0.000   0.262   0.000   0.000   7.384   0.000   0.000   0.000
  0.001   0.000   0.266  -0.000   0.000   7.383  -0.000   0.000
 -0.001   0.000   0.003   0.000   0.000  -0.000   1.395   6.754
 -0.002   0.000   0.008  -0.000   0.000   0.000   6.754  32.415
 pseudopotential strength for first ion, spin component:           2
-21.531   0.000  -0.002   0.267  -0.000   0.001  -0.001  -0.002
  0.000 -21.516  -0.000  -0.000   0.261   0.000   0.000   0.000
 -0.002  -0.000 -21.525   0.001   0.000   0.264   0.003   0.008
  0.267  -0.000   0.001   7.383   0.000  -0.000   0.000  -0.000
 -0.000   0.261   0.000   0.000   7.384  -0.000   0.000   0.000
  0.001   0.000   0.264  -0.000  -0.000   7.383  -0.000   0.000
 -0.001   0.000   0.003   0.000   0.000  -0.000   1.395   6.754
 -0.002   0.000   0.008  -0.000   0.000   0.000   6.754  32.415
 total augmentation occupancy for first ion, spin component:           1
  2.004  -0.000   0.000  -0.004  -0.000   0.000   0.002  -0.001
 -0.000   2.004   0.000  -0.000  -0.007   0.000   0.000  -0.000
  0.000   0.000   2.004   0.000   0.000  -0.004  -0.009   0.003
 -0.004  -0.000   0.000   0.015   0.000  -0.001   0.002  -0.000
 -0.000  -0.007   0.000   0.000   0.030  -0.000   0.000  -0.000
  0.000   0.000  -0.004  -0.001  -0.000   0.015  -0.005   0.000
  0.002   0.000  -0.009   0.002   0.000  -0.005   0.464  -0.010
 -0.001  -0.000   0.003  -0.000  -0.000   0.000  -0.010   0.000
 total augmentation occupancy for first ion, spin component:           2
 -0.000   0.000  -0.000  -0.000  -0.000   0.000   0.000  -0.000
  0.000  -0.000  -0.000  -0.000  -0.000   0.000   0.000  -0.000
 -0.000  -0.000   0.000   0.000   0.000  -0.000   0.000  -0.000
 -0.000  -0.000   0.000   0.000   0.000  -0.000  -0.001   0.000
 -0.000  -0.000   0.000   0.000   0.000  -0.000  -0.000  -0.000
  0.000   0.000  -0.000  -0.000  -0.000   0.001   0.000  -0.000
  0.000   0.000   0.000  -0.001  -0.000   0.000   0.015  -0.000
 -0.000  -0.000  -0.000   0.000  -0.000  -0.000  -0.000   0.000


------------------------ aborting loop because EDIFF is reached ----------------------------------------





 total charge

# of ion       s       p       d       tot
------------------------------------------
    1        0.046   5.995   0.000   6.041
    2        0.038   5.987   0.000   6.025
    3        0.039   5.987   0.000   6.026
    4        0.380   6.498   4.800  11.678
    5        0.332   6.403   4.804  11.539
    6        0.313   6.362   4.828  11.503
    7        0.382   6.502   4.810  11.694
    8        0.379   6.498   4.800  11.677
    9        0.332   6.403   4.802  11.537
   10        0.313   6.362   4.828  11.503
   11        0.382   6.502   4.810  11.694
   12        1.576   3.486   0.000   5.062
   13        1.573   3.494   0.000   5.067
   14        1.572   3.501   0.000   5.072
   15        1.582   3.443   0.000   5.026
   16        1.570   3.472   0.000   5.042
   17        1.576   3.489   0.000   5.065
   18        1.568   3.498   0.000   5.065
   19        1.569   3.492   0.000   5.061
   20        1.570   3.471   0.000   5.041
   21        1.576   3.489   0.000   5.065
   22        1.568   3.497   0.000   5.065
   23        1.569   3.492   0.000   5.061
   24        1.576   3.486   0.000   5.062
   25        1.573   3.493   0.000   5.066
   26        1.572   3.500   0.000   5.072
   27        1.582   3.443   0.000   5.025
--------------------------------------------------
tot         28.108 125.244  38.481 191.834



 magnetization (x)

# of ion       s       p       d       tot
------------------------------------------
    1        0.001   0.001   0.000   0.003
    2        0.003   0.001   0.000   0.004
    3        0.000  -0.001   0.000  -0.001
    4        0.029   0.042   2.986   3.057
    5        0.036   0.039   3.465   3.540
    6        0.039   0.034   3.703   3.776
    7        0.028   0.041   2.965   3.034
    8        0.029   0.042   2.986   3.057
    9        0.036   0.039   3.465   3.541
   10        0.039   0.034   3.703   3.776
   11        0.028   0.040   2.965   3.034
   12        0.007   0.040   0.000   0.047
   13        0.001  -0.049   0.000  -0.048
   14        0.001  -0.046   0.000  -0.046
   15        0.004  -0.067   0.000  -0.063
   16        0.004  -0.044   0.000  -0.040
   17        0.001  -0.054   0.000  -0.053
   18        0.002  -0.040   0.000  -0.038
   19        0.007   0.050   0.000   0.057
   20        0.004  -0.044   0.000  -0.040
   21        0.001  -0.054   0.000  -0.053
   22        0.002  -0.040   0.000  -0.039
   23        0.007   0.050   0.000   0.057
   24        0.007   0.040   0.000   0.047
   25        0.001  -0.050   0.000  -0.049
   26        0.001  -0.046   0.000  -0.046
   27        0.004  -0.068   0.000  -0.064
--------------------------------------------------
tot          0.324  -0.111  26.237  26.450
 
    FORLOC:  cpu time      0.0023: real time      0.0023
    FORHF :  cpu time   1143.0946: real time   1146.4455
    FORNL :  cpu time      2.5318: real time      2.5379
    STRESS:  cpu time      7.4878: real time      7.5060
    FORCOR:  cpu time      0.0895: real time      0.0897
    OFIELD:  cpu time      0.0002: real time      0.0002

  FORCE on cell =-STRESS in cart. coord.  units (eV):
  Direction    XX          YY          ZZ          XY          YZ          ZX
  --------------------------------------------------------------------------------------
  Alpha Z   827.99614   827.99614   827.99614
  Ewald     727.84511   -75.89189-13139.34753    -9.45645    -0.26658     0.26787
  Hartree  7529.09987  7081.09235 -3486.73588    -7.80369    -0.28947     0.28955
  E(xc)    -918.97155  -919.51124  -921.49944    -0.00102     0.00011    -0.00011
  Local  -11514.49114-10297.97808 13271.62276    17.77476     0.55722    -0.58863
  n-local   241.66322   240.60980   235.69073    -0.06991     0.00831     0.00653
  augment   920.19498   934.05684   942.71905    -0.32495     0.00280     0.02238
  Kinetic  3308.80926  3340.21432  3408.12104    -0.33279     0.01315     0.01732
  Fock    -1124.18555 -1132.37628 -1137.01975     0.22341    -0.00177    -0.01190
  -------------------------------------------------------------------------------------
  Total      -2.03965    -1.78804     1.54713     0.00937     0.02377     0.00301
  in kB      -9.84758    -8.63279     7.46965     0.04526     0.11478     0.01454
  external pressure =       -3.67 kB  Pullay stress =        0.00 kB


 VOLUME and BASIS-vectors are now :
 -----------------------------------------------------------------------------
  energy-cutoff  :      520.00
  volume of cell :      331.85
      direct lattice vectors                 reciprocal lattice vectors
    -2.843855204 -5.167221380  0.000123651    -0.175770587 -0.096789718  0.000000651
    -2.849418441  5.174557400 -0.000279785    -0.175521396  0.096600745  0.000007206
    -0.000252295  0.000382401-11.272228507     0.000002428 -0.000003459 -0.088713603

  length of vectors
     5.898108954  5.907218450 11.272228516     0.200657790  0.200348357  0.088713603


 FORCES acting on ions:
    Electron-Ion                     Ewald-Force                    Non-Local-Force
 -----------------------------------------------------------------------------------------------
   -.797E+01 0.153E+02 0.182E+00   0.731E+01 -.152E+02 -.206E+00   0.634E+00 -.188E+00 0.148E-01
   -.617E+01 -.269E+02 -.148E+00   0.608E+01 0.248E+02 0.171E+00   0.933E-01 0.194E+01 -.151E-01
   -.803E+00 -.466E+02 0.134E+00   0.127E+01 0.441E+02 -.160E+00   -.445E+00 0.232E+01 0.171E-01
   -.208E+02 0.246E+02 0.113E+03   0.210E+02 -.249E+02 -.113E+03   -.235E+00 0.558E+00 0.442E+00
   0.103E+02 -.337E+02 0.120E+03   -.104E+02 0.341E+02 -.120E+03   0.239E+00 -.401E+00 0.206E+00
   -.784E+01 -.679E+01 0.224E+03   0.801E+01 0.687E+01 -.224E+03   -.280E+00 -.403E-01 -.592E-01
   0.235E+02 0.148E+02 0.162E+03   -.237E+02 -.146E+02 -.164E+03   0.206E+00 -.111E+00 0.188E+01
   -.209E+02 0.246E+02 -.113E+03   0.211E+02 -.250E+02 0.113E+03   -.231E+00 0.557E+00 -.440E+00
   0.104E+02 -.337E+02 -.120E+03   -.105E+02 0.342E+02 0.120E+03   0.239E+00 -.401E+00 -.207E+00
   -.789E+01 -.677E+01 -.224E+03   0.807E+01 0.685E+01 0.224E+03   -.279E+00 -.420E-01 0.560E-01
   0.236E+02 0.148E+02 -.162E+03   -.238E+02 -.147E+02 0.164E+03   0.204E+00 -.114E+00 -.188E+01
   -.626E+01 0.106E+03 0.537E+03   0.671E+01 -.113E+03 -.558E+03   -.397E+00 0.597E+01 0.183E+02
   0.394E+02 -.462E+02 0.521E+03   -.403E+02 0.463E+02 -.543E+03   0.824E+00 -.105E+00 0.192E+02
   -.375E+02 -.334E+02 0.516E+03   0.382E+02 0.322E+02 -.538E+03   -.636E+00 0.107E+01 0.185E+02
   0.673E+01 0.546E+02 0.578E+03   -.721E+01 -.588E+02 -.603E+03   0.419E+00 0.366E+01 0.214E+02
   0.376E+01 -.473E+02 -.410E+03   -.419E+01 0.507E+02 0.427E+03   0.384E+00 -.296E+01 -.152E+02
   0.131E+02 0.279E+02 -.443E+03   -.142E+02 -.276E+02 0.467E+03   0.107E+01 -.211E+00 -.206E+02
   -.143E+02 0.319E+02 -.383E+03   0.156E+02 -.315E+02 0.401E+03   -.114E+01 -.373E+00 -.157E+02
   -.267E+01 -.674E+02 -.394E+03   0.320E+01 0.732E+02 0.411E+03   -.476E+00 -.520E+01 -.146E+02
   0.373E+01 -.473E+02 0.409E+03   -.416E+01 0.507E+02 -.427E+03   0.383E+00 -.295E+01 0.152E+02
   0.129E+02 0.280E+02 0.443E+03   -.140E+02 -.277E+02 -.467E+03   0.106E+01 -.206E+00 0.207E+02
   -.143E+02 0.319E+02 0.382E+03   0.156E+02 -.315E+02 -.400E+03   -.116E+01 -.381E+00 0.157E+02
   -.267E+01 -.673E+02 0.394E+03   0.320E+01 0.731E+02 -.411E+03   -.475E+00 -.520E+01 0.146E+02
   -.618E+01 0.106E+03 -.537E+03   0.663E+01 -.113E+03 0.558E+03   -.394E+00 0.597E+01 -.183E+02
   0.393E+02 -.463E+02 -.521E+03   -.403E+02 0.464E+02 0.543E+03   0.843E+00 -.102E+00 -.192E+02
   -.374E+02 -.335E+02 -.516E+03   0.381E+02 0.323E+02 0.538E+03   -.637E+00 0.107E+01 -.185E+02
   0.676E+01 0.546E+02 -.578E+03   -.725E+01 -.588E+02 0.603E+03   0.419E+00 0.365E+01 -.214E+02
 -----------------------------------------------------------------------------------------------
   -.269E+00 -.817E+01 -.197E-01   -.115E-12 0.497E-13 -.796E-12   0.241E+00 0.777E+01 0.256E-02
 
 
 POSITION                                       TOTAL-FORCE (eV/Angst)
 -----------------------------------------------------------------------------------
     -2.87509     -0.16569     -2.81787         0.018081     -0.018791     -0.011454
     -1.39831      0.85986     -8.45448         0.009202      0.036268      0.012733
     -2.78782     -3.58974     -2.81775        -0.011053      0.037288     -0.010580
     -5.68902      0.01049     -5.60833         0.002640      0.087436      0.051860
     -4.27537     -2.55934     -5.62409         0.071683     -0.019756      0.012627
     -1.41625     -2.55956     -5.70156        -0.071935     -0.023699     -0.003066
     -2.84954      0.02345     -5.64034        -0.003420      0.008609      0.119035
     -5.68902      0.01029     -0.02819         0.002648      0.088888     -0.052242
     -4.27523     -2.55955     -0.01206         0.071152     -0.024278     -0.013170
     -1.41645     -2.55935    -11.20666        -0.071863     -0.024534      0.007390
     -2.84940      0.02334      0.00400        -0.002683      0.008736     -0.117709
     -1.42705     -0.63589     -6.64593         0.001037      0.086241     -0.079830
     -2.82212      1.67234     -6.56835         0.016631     -0.011009      0.052601
     -2.86989     -3.47826     -6.53595        -0.020304     -0.044644      0.035595
     -4.26499     -0.73487     -6.59533        -0.002495     -0.077090     -0.068724
     -1.42609      0.77789     -4.56703         0.005491      0.063615     -0.030239
     -2.86211      3.48496     -4.74127         0.055404      0.051865      0.018623
     -2.83385     -1.67510     -4.67628        -0.051495     -0.007579     -0.083915
     -4.26720      0.71290     -4.55853        -0.010314     -0.141729      0.032253
     -1.42598      0.77759     -1.06965         0.007551      0.043023     -0.000654
     -2.86227      3.48488     -0.89576         0.035700      0.059357     -0.049208
     -2.83364     -1.67531     -0.96029        -0.039120     -0.004203      0.054101
     -4.26706      0.71279     -1.07827        -0.010331     -0.138684     -0.057172
     -1.42720     -0.63586    -10.26212         0.000248      0.085262      0.105941
     -2.82239      1.67248    -10.33983         0.005043     -0.014600     -0.021565
     -2.86984     -3.47819    -10.37182        -0.002076     -0.053333     -0.001723
     -4.26517     -0.73463    -10.31276        -0.005417     -0.052658      0.098494
 -----------------------------------------------------------------------------------
    total drift:                                0.011199      0.046234     -0.025005


--------------------------------------------------------------------------------------------------------



  FREE ENERGIE OF THE ION-ELECTRON SYSTEM (eV)
  ---------------------------------------------------
  free  energy   TOTEN  =      -267.83909682 eV

  energy  without entropy=     -267.83402248  energy(sigma->0) =     -267.83655965
 
 d Force = 0.2203365E+00[ 0.393E-02, 0.437E+00]  d Energy = 0.8986754E+00-0.678E+00
 d Force = 0.1771483E+03[ 0.172E+03, 0.183E+03]  d Ewald  = 0.2638085E+02 0.151E+03


--------------------------------------------------------------------------------------------------------


    POTLOK:  cpu time      0.1684: real time      0.1688


--------------------------------------------------------------------------------------------------------




--------------------------------------------------------------------------------------------------------


  
 reached required accuracy - stopping structural energy minimisation
     LOOP+:  cpu time  15752.4914: real time  15804.4331
    4ORBIT:  cpu time      0.0000: real time      0.0000



 total charge

# of ion       s       p       d       tot
------------------------------------------
    1        0.046   5.995   0.000   6.041
    2        0.038   5.987   0.000   6.025
    3        0.039   5.987   0.000   6.026
    4        0.380   6.498   4.800  11.678
    5        0.332   6.403   4.804  11.539
    6        0.313   6.362   4.828  11.503
    7        0.382   6.502   4.810  11.694
    8        0.379   6.498   4.800  11.677
    9        0.332   6.403   4.802  11.537
   10        0.313   6.362   4.828  11.503
   11        0.382   6.502   4.810  11.694
   12        1.576   3.486   0.000   5.062
   13        1.573   3.494   0.000   5.067
   14        1.572   3.501   0.000   5.072
   15        1.582   3.443   0.000   5.026
   16        1.570   3.472   0.000   5.042
   17        1.576   3.489   0.000   5.065
   18        1.568   3.498   0.000   5.065
   19        1.569   3.492   0.000   5.061
   20        1.570   3.471   0.000   5.041
   21        1.576   3.489   0.000   5.065
   22        1.568   3.497   0.000   5.065
   23        1.569   3.492   0.000   5.061
   24        1.576   3.486   0.000   5.062
   25        1.573   3.493   0.000   5.066
   26        1.572   3.500   0.000   5.072
   27        1.582   3.443   0.000   5.025
--------------------------------------------------
tot         28.108 125.244  38.481 191.834



 magnetization (x)

# of ion       s       p       d       tot
------------------------------------------
    1        0.001   0.001   0.000   0.003
    2        0.003   0.001   0.000   0.004
    3        0.000  -0.001   0.000  -0.001
    4        0.029   0.042   2.986   3.057
    5        0.036   0.039   3.465   3.540
    6        0.039   0.034   3.703   3.776
    7        0.028   0.041   2.965   3.034
    8        0.029   0.042   2.986   3.057
    9        0.036   0.039   3.465   3.541
   10        0.039   0.034   3.703   3.776
   11        0.028   0.040   2.965   3.034
   12        0.007   0.040   0.000   0.047
   13        0.001  -0.049   0.000  -0.048
   14        0.001  -0.046   0.000  -0.046
   15        0.004  -0.067   0.000  -0.063
   16        0.004  -0.044   0.000  -0.040
   17        0.001  -0.054   0.000  -0.053
   18        0.002  -0.040   0.000  -0.038
   19        0.007   0.050   0.000   0.057
   20        0.004  -0.044   0.000  -0.040
   21        0.001  -0.054   0.000  -0.053
   22        0.002  -0.040   0.000  -0.039
   23        0.007   0.050   0.000   0.057
   24        0.007   0.040   0.000   0.047
   25        0.001  -0.050   0.000  -0.049
   26        0.001  -0.046   0.000  -0.046
   27        0.004  -0.068   0.000  -0.064
--------------------------------------------------
tot          0.324  -0.111  26.237  26.450
 

 total amount of memory used by VASP MPI-rank0   218435. kBytes
=======================================================================

   base      :      30000. kBytes
   nonlr-proj:      32639. kBytes
   fftplans  :       1955. kBytes
   grid      :      19731. kBytes
   one-center:        839. kBytes
   HF        :        194. kBytes
   wavefun   :      56400. kBytes
   fock_wrk  :      76677. kBytes
 
  
  
 General timing and accounting informations for this job:
 ========================================================
  
                  Total CPU time used (sec):    64024.703
                            User time (sec):    63695.899
                          System time (sec):      328.804
                         Elapsed time (sec):    64235.566
  
                   Maximum memory used (kb):      735556.
                   Average memory used (kb):          N/A
  
                          Minor page faults:     42356522
                          Major page faults:            2
                 Voluntary context switches:        49349
