 vasp.6.4.2 20Jul23 (build Nov 27 2023 21:25:52) complex                        
  
 executed on             LinuxIFC date 2024.12.10  16:55:08
 running   64 mpi-ranks, on    1 nodes
 distrk:  each k-point on   64 cores,    1 groups
 distr:  one band on NCORE=   1 cores,   64 groups


--------------------------------------------------------------------------------------------------------


 INCAR:
   ALGO = All
   EDIFF = 0.00135
   ENCUT = 520
   HFSCREEN = 0.2
   IBRION = 2
   ICHARG = 1
   ISIF = 3
   ISMEAR = 0
   ISPIN = 2
   LHFCALC = True
   LMAXMIX = 4
   LORBIT = 11
   LREAL = Auto
   LWAVE = False
   MAGMOM = 5*0.6 6*3.0 16*0.6
   NELM = 100
   NSW = 99
   PREC = Accurate
   PRECFOCK = Fast
   SIGMA = 0.05

 POTCAR:    PAW_PBE Na_pv 19Sep2006               
 POTCAR:    PAW_PBE Li_sv 10Sep2004               
 POTCAR:    PAW_PBE Mn_pv 02Aug2007               
 POTCAR:    PAW_PBE O 08Apr2002                   
 -----------------------------------------------------------------------------
|                                                                             |
|           W    W    AA    RRRRR   N    N  II  N    N   GGGG   !!!           |
|           W    W   A  A   R    R  NN   N  II  NN   N  G    G  !!!           |
|           W    W  A    A  R    R  N N  N  II  N N  N  G       !!!           |
|           W WW W  AAAAAA  RRRRR   N  N N  II  N  N N  G  GGG   !            |
|           WW  WW  A    A  R   R   N   NN  II  N   NN  G    G                |
|           W    W  A    A  R    R  N    N  II  N    N   GGGG   !!!           |
|                                                                             |
|     For optimal performance we recommend to set                             |
|       NCORE = 2 up to number-of-cores-per-socket                            |
|     NCORE specifies how many cores store one orbital (NPAR=cpu/NCORE).      |
|     This setting can greatly improve the performance of VASP for DFT.       |
|     The default, NCORE=1 might be grossly inefficient on modern             |
|     multi-core architectures or massively parallel machines. Do your        |
|     own testing! More info at https://www.vasp.at/wiki/index.php/NCORE      |
|     Unfortunately you need to use the default for GW and RPA                |
|     calculations (for HF NCORE is supported but not extensively tested      |
|     yet).                                                                   |
|                                                                             |
 -----------------------------------------------------------------------------

 POTCAR:    PAW_PBE Na_pv 19Sep2006               
   VRHFIN =Na: p6s1                                                                                 
   LEXCH  = PE                                                                                      
   EATOM  =   766.0439 eV,   56.3026 Ry                                                             
                                                                                                    
   TITEL  = PAW_PBE Na_pv 19Sep2006                                                                 
   LULTRA =        F    use ultrasoft PP ?                                                          
   IUNSCR =        1    unscreen: 0-lin 1-nonlin 2-no                                               
   RPACOR =    1.800    partial core radius                                                         
   POMASS =   22.990; ZVAL   =    7.000    mass and valenz                                          
   RCORE  =    2.200    outmost cutoff radius                                                       
   RWIGS  =    2.200; RWIGS  =    1.164    wigner-seitz radius (au A)                               
   ENMAX  =  259.561; ENMIN  =  194.671 eV                                                          
   ICORE  =        2    local potential                                                             
   LCOR   =        T    correct aug charges                                                         
   LPAW   =        T    paw PP                                                                      
   EAUG   =  368.056                                                                                
   DEXC   =    0.000                                                                                
   RMAX   =    2.245    core radius for proj-oper                                                   
   RAUG   =    1.300    factor for augmentation sphere                                              
   RDEP   =    2.259    radius for radial grids                                                     
   RDEPT  =    1.738    core radius for aug-charge                                                  
                                                                                                    
   Atomic configuration                                                                             
    5 entries                                                                                       
     n  l   j            E        occ.                                                              
     1  0  0.50     -1033.6933   2.0000                                                             
     2  0  0.50       -56.7526   2.0000                                                             
     2  1  1.50       -28.6721   6.0000                                                             
     3  0  0.50        -2.7440   1.0000                                                             
     3  2  1.50        -1.3606   0.0000                                                             
   Description                                                                                      
     l       E           TYP  RCUT    TYP  RCUT                                                     
     1    -28.6720912     23  2.000                                                                 
     1      6.8029130     23  2.000                                                                 
     0     -2.7439560     23  2.200                                                                 
     0     34.0145650     23  2.200                                                                 
     2     -1.3605826     23  2.200                                                                 
  local pseudopotential read in
  partial core-charges read in
  partial kinetic energy density read in
  atomic valenz-charges read in
  non local Contribution for L=           1  read in
    real space projection operators read in
  non local Contribution for L=           1  read in
    real space projection operators read in
  non local Contribution for L=           0  read in
    real space projection operators read in
  non local Contribution for L=           0  read in
    real space projection operators read in
    PAW grid and wavefunctions read in
 
   number of l-projection  operators is LMAX  =           4
   number of lm-projection operators is LMMAX =           8
 
 POTCAR:    PAW_PBE Li_sv 10Sep2004               
   VRHFIN =Li: 1s2s2p                                                                               
   LEXCH  = PE                                                                                      
   EATOM  =   202.7858 eV,   14.9043 Ry                                                             
                                                                                                    
   TITEL  = PAW_PBE Li_sv 10Sep2004                                                                 
   LULTRA =        F    use ultrasoft PP ?                                                          
   IUNSCR =        0    unscreen: 0-lin 1-nonlin 2-no                                               
   RPACOR =    0.000    partial core radius                                                         
   POMASS =    7.010; ZVAL   =    3.000    mass and valenz                                          
   RCORE  =    1.700    outmost cutoff radius                                                       
   RWIGS  =    2.050; RWIGS  =    1.085    wigner-seitz radius (au A)                               
   ENMAX  =  499.034; ENMIN  =  374.276 eV                                                          
   ICORE  =        2    local potential                                                             
   LCOR   =        T    correct aug charges                                                         
   LPAW   =        T    paw PP                                                                      
   EAUG   =  628.945                                                                                
   RMAX   =    1.732    core radius for proj-oper                                                   
   RAUG   =    1.300    factor for augmentation sphere                                              
   RDEP   =    1.728    radius for radial grids                                                     
   RDEPT  =    1.329    core radius for aug-charge                                                  
                                                                                                    
   Atomic configuration                                                                             
    4 entries                                                                                       
     n  l   j            E        occ.                                                              
     1  0  0.50       -51.8549   2.0000                                                             
     2  0  0.50        -2.8742   1.0000                                                             
     2  1  0.50        -1.3606   0.0000                                                             
     3  2  1.50        -1.3606   0.0000                                                             
   Description                                                                                      
     l       E           TYP  RCUT    TYP  RCUT                                                     
     0    -51.8548813     23  1.400                                                                 
     0     -2.8742052     23  1.700                                                                 
     1     -1.3605826     23  1.400                                                                 
     2     -1.3605826     23  1.400                                                                 
  local pseudopotential read in
  atomic valenz-charges read in
  non local Contribution for L=           0  read in
    real space projection operators read in
  non local Contribution for L=           0  read in
    real space projection operators read in
  non local Contribution for L=           1  read in
    real space projection operators read in
    PAW grid and wavefunctions read in
 
   number of l-projection  operators is LMAX  =           3
   number of lm-projection operators is LMMAX =           5
 
 POTCAR:    PAW_PBE Mn_pv 02Aug2007               
   VRHFIN =Mn: 3p4s3d                                                                               
   LEXCH  = PE                                                                                      
   EATOM  =  2025.2664 eV,  148.8529 Ry                                                             
                                                                                                    
   TITEL  = PAW_PBE Mn_pv 02Aug2007                                                                 
   LULTRA =        F    use ultrasoft PP ?                                                          
   IUNSCR =        1    unscreen: 0-lin 1-nonlin 2-no                                               
   RPACOR =    2.080    partial core radius                                                         
   POMASS =   54.938; ZVAL   =   13.000    mass and valenz                                          
   RCORE  =    2.300    outmost cutoff radius                                                       
   RWIGS  =    2.500; RWIGS  =    1.323    wigner-seitz radius (au A)                               
   ENMAX  =  269.864; ENMIN  =  202.398 eV                                                          
   ICORE  =        3    local potential                                                             
   LCOR   =        T    correct aug charges                                                         
   LPAW   =        T    paw PP                                                                      
   EAUG   =  569.085                                                                                
   DEXC   =    0.000                                                                                
   RMAX   =    2.343    core radius for proj-oper                                                   
   RAUG   =    1.300    factor for augmentation sphere                                              
   RDEP   =    2.338    radius for radial grids                                                     
   RDEPT  =    1.798    core radius for aug-charge                                                  
                                                                                                    
   Atomic configuration                                                                             
    8 entries                                                                                       
     n  l   j            E        occ.                                                              
     1  0  0.50     -6424.8287   2.0000                                                             
     2  0  0.50      -739.1154   2.0000                                                             
     2  1  1.50      -625.3949   6.0000                                                             
     3  0  0.50       -81.6100   2.0000                                                             
     3  1  1.50       -50.4667   6.0000                                                             
     3  2  2.50        -3.3745   6.0000                                                             
     4  0  0.50        -4.1331   1.0000                                                             
     4  3  2.50        -1.3606   0.0000                                                             
   Description                                                                                      
     l       E           TYP  RCUT    TYP  RCUT                                                     
     1    -50.4666628     23  2.000                                                                 
     1     -1.3605826     23  2.000                                                                 
     2     -3.3744729     23  2.300                                                                 
     2     -4.7350555     23  2.300                                                                 
     0     -4.1331431     23  2.300                                                                 
     0      7.6656591     23  2.300                                                                 
     3      9.5240782     23  2.300                                                                 
  local pseudopotential read in
  partial core-charges read in
  partial kinetic energy density read in
  atomic valenz-charges read in
  non local Contribution for L=           1  read in
    real space projection operators read in
  non local Contribution for L=           1  read in
    real space projection operators read in
  non local Contribution for L=           2  read in
    real space projection operators read in
  non local Contribution for L=           2  read in
    real space projection operators read in
  non local Contribution for L=           0  read in
    real space projection operators read in
  non local Contribution for L=           0  read in
    real space projection operators read in
    PAW grid and wavefunctions read in
 
   number of l-projection  operators is LMAX  =           6
   number of lm-projection operators is LMMAX =          18
 
 POTCAR:    PAW_PBE O 08Apr2002                   
   VRHFIN =O: s2p4                                                                                  
   LEXCH  = PE                                                                                      
   EATOM  =   432.3788 eV,   31.7789 Ry                                                             
                                                                                                    
   TITEL  = PAW_PBE O 08Apr2002                                                                     
   LULTRA =        F    use ultrasoft PP ?                                                          
   IUNSCR =        1    unscreen: 0-lin 1-nonlin 2-no                                               
   RPACOR =    1.200    partial core radius                                                         
   POMASS =   16.000; ZVAL   =    6.000    mass and valenz                                          
   RCORE  =    1.520    outmost cutoff radius                                                       
   RWIGS  =    1.550; RWIGS  =    0.820    wigner-seitz radius (au A)                               
   ENMAX  =  400.000; ENMIN  =  300.000 eV                                                          
   ICORE  =        2    local potential                                                             
   LCOR   =        T    correct aug charges                                                         
   LPAW   =        T    paw PP                                                                      
   EAUG   =  605.392                                                                                
   DEXC   =    0.000                                                                                
   RMAX   =    1.553    core radius for proj-oper                                                   
   RAUG   =    1.300    factor for augmentation sphere                                              
   RDEP   =    1.550    radius for radial grids                                                     
   RDEPT  =    1.329    core radius for aug-charge                                                  
                                                                                                    
   Atomic configuration                                                                             
    4 entries                                                                                       
     n  l   j            E        occ.                                                              
     1  0  0.50      -514.6923   2.0000                                                             
     2  0  0.50       -23.9615   2.0000                                                             
     2  1  0.50        -9.0305   4.0000                                                             
     3  2  1.50        -9.5241   0.0000                                                             
   Description                                                                                      
     l       E           TYP  RCUT    TYP  RCUT                                                     
     0    -23.9615318     23  1.200                                                                 
     0     -9.5240782     23  1.200                                                                 
     1     -9.0304911     23  1.520                                                                 
     1      8.1634956     23  1.520                                                                 
     2     -9.5240782      7  1.500                                                                 
  local pseudopotential read in
  partial core-charges read in
  partial kinetic energy density read in
  kinetic energy density of atom read in
  atomic valenz-charges read in
  non local Contribution for L=           0  read in
    real space projection operators read in
  non local Contribution for L=           0  read in
    real space projection operators read in
  non local Contribution for L=           1  read in
    real space projection operators read in
  non local Contribution for L=           1  read in
    real space projection operators read in
    PAW grid and wavefunctions read in
 
   number of l-projection  operators is LMAX  =           4
   number of lm-projection operators is LMMAX =           8
 
 Optimization of the real space projectors (new method)

 maximal supplied QI-value         = 17.01
 optimisation between [QCUT,QGAM] = [ 11.57, 23.30] = [ 37.45,152.03] Ry 
 Optimized for a Real-space Cutoff    1.45 Angstroem

   l    n(q)    QCUT    max X(q) W(low)/X(q) W(high)/X(q)  e(spline) 
   1     10    11.565     4.940    0.87E-04    0.13E-03    0.13E-06
   1     10    11.565     6.253    0.13E-03    0.19E-03    0.20E-06
   0     10    11.565    37.438    0.53E-04    0.73E-05    0.79E-07
   0     10    11.565     9.606    0.27E-04    0.60E-05    0.56E-07
 Optimization of the real space projectors (new method)

 maximal supplied QI-value         = 22.11
 optimisation between [QCUT,QGAM] = [ 11.50, 23.22] = [ 37.02,150.92] Ry 
 Optimized for a Real-space Cutoff    1.08 Angstroem

   l    n(q)    QCUT    max X(q) W(low)/X(q) W(high)/X(q)  e(spline) 
   0      7    11.497    10.506    0.36E-04    0.62E-04    0.14E-07
   0      7    11.497     8.367    0.65E-04    0.14E-03    0.28E-07
   1      7    11.497     8.983    0.21E-03    0.43E-03    0.90E-07
 Optimization of the real space projectors (new method)

 maximal supplied QI-value         = 16.25
 optimisation between [QCUT,QGAM] = [ 11.54, 23.24] = [ 37.28,151.24] Ry 
 Optimized for a Real-space Cutoff    1.45 Angstroem

   l    n(q)    QCUT    max X(q) W(low)/X(q) W(high)/X(q)  e(spline) 
   1     10    11.539     3.658    0.56E-04    0.12E-03    0.13E-06
   1     10    11.539     5.612    0.11E-03    0.23E-03    0.24E-06
   2      9    11.539    55.373    0.45E-04    0.92E-04    0.22E-06
   2      9    11.539    50.863    0.47E-04    0.95E-04    0.22E-06
   0     10    11.539    79.536    0.46E-04    0.27E-04    0.11E-06
   0     10    11.539    38.668    0.38E-04    0.25E-04    0.10E-06
 Optimization of the real space projectors (new method)

 maximal supplied QI-value         = 24.76
 optimisation between [QCUT,QGAM] = [ 11.64, 23.27] = [ 37.91,151.63] Ry 
 Optimized for a Real-space Cutoff    1.14 Angstroem

   l    n(q)    QCUT    max X(q) W(low)/X(q) W(high)/X(q)  e(spline) 
   0      8    11.635    20.381    0.10E-03    0.33E-03    0.24E-06
   0      8    11.635    15.268    0.11E-03    0.35E-03    0.26E-06
   1      7    11.635     5.964    0.24E-03    0.31E-03    0.30E-06
   1      7    11.635     5.382    0.22E-03    0.25E-03    0.26E-06
  PAW_PBE Na_pv 19Sep2006               :
 energy of atom  1       EATOM= -766.0439
 kinetic energy error for atom=    0.0019 (will be added to EATOM!!)
  PAW_PBE Li_sv 10Sep2004               :
 energy of atom  2       EATOM= -202.7858
 kinetic energy error for atom=    0.0130 (will be added to EATOM!!)
  PAW_PBE Mn_pv 02Aug2007               :
 energy of atom  3       EATOM=-2025.2664
 kinetic energy error for atom=    0.0058 (will be added to EATOM!!)
  PAW_PBE O 08Apr2002                   :
 energy of atom  4       EATOM= -432.3788
 kinetic energy error for atom=    0.0208 (will be added to EATOM!!)
 
 
 POSCAR: Na6 Li2 Mn6 O16
  positions in direct lattice
  velocities in cartesian coordinates
 exchange correlation table for  LEXCH =        8
   RHO(1)=    0.500       N(1)  =     2000
   RHO(2)=  100.500       N(2)  =     4000
 


--------------------------------------------------------------------------------------------------------


 ion  position               nearest neighbor table
   1  0.327  0.687  0.251-  17 2.30  23 2.36  20 2.37
   2  0.160  0.304  0.751-
   3  0.841  0.152  0.247-  20 2.37  23 2.37
   4  0.501  0.982  0.547-  12 1.87  14 1.87  13 1.87
   5  0.001  0.016  0.013-  21 1.96  23 2.01  20 2.02  26 2.08  27 2.15  24 2.15   9 2.87
   6  0.996  0.990  0.492-  14 1.90  12 1.91  17 1.93  19 1.94  15 1.96  16 2.00   7 2.91   8 2.93
                             7 2.94   8 2.95
   7  0.999  0.489  0.500-  13 1.89  14 1.89  18 1.93  17 1.93  15 1.96  16 1.98   8 2.91   6 2.91
                             8 2.93   6 2.94
   8  0.499  0.492  0.491-  13 1.90  12 1.91  18 1.94  19 1.94  15 1.96  16 2.00   7 2.91   6 2.93
                             7 2.93   6 2.95
   9  0.001  0.506  0.001-  26 1.90  27 1.91  20 1.92  21 1.92  25 1.97  22 1.98   5 2.87  11 2.90
                            10 2.93  11 2.93  10 2.95
  10  0.502  0.010  0.995-  24 1.92  21 1.92  26 1.93  23 1.93  22 1.98  25 1.98  11 2.92   9 2.93
                            11 2.93   9 2.95
  11  0.499  0.510  0.008-  27 1.92  24 1.92  20 1.93  23 1.93  25 1.96  22 1.98   9 2.90  10 2.92
                             9 2.93  10 2.93
  12  0.319  0.166  0.576-   4 1.87   6 1.91   8 1.91
  13  0.315  0.623  0.586-   4 1.87   7 1.89   8 1.90
  14  0.858  0.168  0.586-   4 1.87   7 1.89   6 1.90
  15  0.824  0.659  0.583-   7 1.96   8 1.96   6 1.96
  16  0.165  0.329  0.400-   7 1.98   8 2.00   6 2.00
  17  0.136  0.803  0.403-   6 1.93   7 1.93   1 2.30
  18  0.693  0.358  0.401-   7 1.93   8 1.94
  19  0.673  0.820  0.402-   8 1.94   6 1.94
  20  0.171  0.366  0.097-   9 1.92  11 1.93   5 2.02   3 2.37   1 2.37
  21  0.174  0.837  0.083-   9 1.92  10 1.92   5 1.96
  22  0.665  0.332  0.093-   9 1.98  10 1.98  11 1.98
  23  0.642  0.839  0.093-  10 1.93  11 1.93   5 2.01   1 2.36   3 2.37
  24  0.365  0.201  0.911-  11 1.92  10 1.92   5 2.15
  25  0.337  0.667  0.911-  11 1.96   9 1.97  10 1.98
  26  0.835  0.190  0.910-   9 1.90  10 1.93   5 2.08
  27  0.821  0.652  0.917-   9 1.91  11 1.92   5 2.15
 
  LATTYP: Found a triclinic cell.
 ALAT       =     5.8334868891
 B/A-ratio  =     1.0025933079
 C/A-ratio  =     1.9203670506
 COS(alpha) =     0.0045573370
 COS(beta)  =     0.0182733111
 COS(gamma) =     0.4936582322
  
  Lattice vectors:
  
 A1 = (   2.9313811120,   5.0431855281,   0.0534208769)
 A2 = (  -2.9464673668,   5.0521723872,   0.0134414474)
 A3 = (   0.0762817694,   0.0737865748,  11.2019332808)


Analysis of symmetry for initial positions (statically):
=====================================================================
 Subroutine PRICEL returns:
 Original cell was already a primitive cell.
 

 Routine SETGRP: Setting up the symmetry group for a 
 triclinic supercell.


 Subroutine GETGRP returns: Found  1 space group operations
 (whereof  1 operations were pure point group operations)
 out of a pool of  2 trial point group operations.


The static configuration has the point symmetry C_1 .


Analysis of symmetry for dynamics (positions and initial velocities):
=====================================================================
 Subroutine PRICEL returns:
 Original cell was already a primitive cell.
 

 Routine SETGRP: Setting up the symmetry group for a 
 triclinic supercell.


 Subroutine GETGRP returns: Found  1 space group operations
 (whereof  1 operations were pure point group operations)
 out of a pool of  2 trial point group operations.


The dynamic configuration has the point symmetry C_1 .


Analysis of structural, dynamic, and magnetic symmetry:
=====================================================================
 Subroutine PRICEL returns:
 Original cell was already a primitive cell.
 

 Routine SETGRP: Setting up the symmetry group for a 
 triclinic supercell.


 Subroutine GETGRP returns: Found  1 space group operations
 (whereof  1 operations were pure point group operations)
 out of a pool of  2 trial point group operations.


The overall configuration has the point symmetry C_1 .


 Subroutine INISYM returns: Found  1 space group operations
 (whereof  1 operations are pure point group operations),
 and found     1 'primitive' translations


----------------------------------------------------------------------------------------

                                     Primitive cell                                     

  volume of cell :     332.3250

  direct lattice vectors                    reciprocal lattice vectors
    -2.931381112 -5.043185528 -0.053420877    -0.170294473 -0.099321925  0.001813882
    -2.946467367  5.052172387  0.013441447    -0.169982670  0.098798054  0.000506753
    -0.076281769 -0.073786575-11.201933281     0.000608151  0.000592206 -0.089278347

  length of vectors
     5.833486889  5.848614917 11.202436012     0.197150558  0.196609817  0.089282382

  position of ions in fractional coordinates (direct lattice)
     0.327448137  0.686632647  0.250627861
     0.160383898  0.303850876  0.750856985
     0.841063979  0.152462249  0.246786598
     0.501095883  0.982191047  0.547047118
     0.000863759  0.016464345  0.012916034
     0.995917174  0.990232527  0.492148093
     0.998836975  0.489213399  0.500266699
     0.498673838  0.492279669  0.491362898
     0.000514262  0.506050789  0.000981888
     0.502113469  0.009697682  0.994879470
     0.499256305  0.509527605  0.008373739
     0.319246266  0.166066644  0.576218132
     0.315191342  0.623476018  0.586243828
     0.858186818  0.168432191  0.585835645
     0.824492193  0.659226920  0.583314144
     0.164517149  0.328862035  0.400044408
     0.135688952  0.802518325  0.402965154
     0.693181609  0.357993055  0.401283236
     0.672915849  0.819899456  0.402431594
     0.171221807  0.366197827  0.097362304
     0.173506740  0.836644812  0.083201594
     0.664873668  0.332493285  0.093231884
     0.642207239  0.838770108  0.092661806
     0.365313729  0.201114593  0.911141409
     0.336757838  0.667416694  0.910927070
     0.835341772  0.190494623  0.910348197
     0.821189350  0.651790579  0.916542214

  ion indices of the primitive-cell ions
   primitive index   ion index
                 1           1
                 2           2
                 3           3
                 4           4
                 5           5
                 6           6
                 7           7
                 8           8
                 9           9
                10          10
                11          11
                12          12
                13          13
                14          14
                15          15
                16          16
                17          17
                18          18
                19          19
                20          20
                21          21
                22          22
                23          23
                24          24
                25          25
                26          26
                27          27

----------------------------------------------------------------------------------------

 
 
 KPOINTS: pymatgen with grid density = 1046 / numb

Automatic generation of k-mesh.
 Grid dimensions read from file:
 generate k-points for:    4    4    2

 Generating k-lattice:

  Cartesian coordinates                     Fractional coordinates (reciprocal lattice)
    -0.042573618 -0.024830481  0.000453471     0.250000000  0.000000000  0.000000000
    -0.042495667  0.024699513  0.000126688    -0.000000000  0.250000000  0.000000000
     0.000304076  0.000296103 -0.044639174    -0.000000000  0.000000000  0.500000000

  Length of vectors
     0.049287640  0.049152454  0.044641191

  Shift w.r.t. Gamma in fractional coordinates (k-lattice)
     0.000000000  0.000000000  0.000000000

 
 Subroutine IBZKPT returns following result:
 ===========================================
 
 Found     20 irreducible k-points:
 
 Following reciprocal coordinates:
            Coordinates               Weight
  0.000000  0.000000  0.000000      1.000000
  0.250000 -0.000000 -0.000000      2.000000
  0.500000 -0.000000 -0.000000      1.000000
 -0.000000  0.250000  0.000000      2.000000
  0.250000  0.250000  0.000000      2.000000
  0.500000  0.250000 -0.000000      2.000000
 -0.250000  0.250000 -0.000000      2.000000
 -0.000000  0.500000 -0.000000      1.000000
  0.250000  0.500000 -0.000000      2.000000
  0.500000  0.500000  0.000000      1.000000
 -0.000000  0.000000  0.500000      1.000000
  0.250000 -0.000000  0.500000      2.000000
  0.500000 -0.000000  0.500000      1.000000
 -0.000000  0.250000  0.500000      2.000000
  0.250000  0.250000  0.500000      2.000000
  0.500000  0.250000  0.500000      2.000000
 -0.250000  0.250000  0.500000      2.000000
 -0.000000  0.500000  0.500000      1.000000
  0.250000  0.500000  0.500000      2.000000
  0.500000  0.500000  0.500000      1.000000
 
 Following cartesian coordinates:
            Coordinates               Weight
  0.000000  0.000000  0.000000      1.000000
 -0.042574 -0.024830  0.000453      2.000000
 -0.085147 -0.049661  0.000907      1.000000
 -0.042496  0.024700  0.000127      2.000000
 -0.085069 -0.000131  0.000580      2.000000
 -0.127643 -0.024961  0.001034      2.000000
  0.000078  0.049530 -0.000327      2.000000
 -0.084991  0.049399  0.000253      1.000000
 -0.127565  0.024569  0.000707      2.000000
 -0.170139 -0.000262  0.001160      1.000000
  0.000304  0.000296 -0.044639      1.000000
 -0.042270 -0.024534 -0.044186      2.000000
 -0.084843 -0.049365 -0.043732      1.000000
 -0.042192  0.024996 -0.044512      2.000000
 -0.084765  0.000165 -0.044059      2.000000
 -0.127339 -0.024665 -0.043606      2.000000
  0.000382  0.049826 -0.044966      2.000000
 -0.084687  0.049695 -0.044386      1.000000
 -0.127261  0.024865 -0.043932      2.000000
 -0.169834  0.000034 -0.043479      1.000000
 
 
 Subroutine IBZKPT_HF returns following result:
 ==============================================
 
 Found     32 k-points in 1st BZ
 the following     32 k-points will be used (e.g. in the exchange kernel)
 Following reciprocal coordinates:   # in IRBZ
  0.000000  0.000000  0.000000    0.03125000   1 t-inv F
  0.250000 -0.000000 -0.000000    0.03125000   2 t-inv F
  0.500000 -0.000000 -0.000000    0.03125000   3 t-inv F
 -0.000000  0.250000  0.000000    0.03125000   4 t-inv F
  0.250000  0.250000  0.000000    0.03125000   5 t-inv F
  0.500000  0.250000 -0.000000    0.03125000   6 t-inv F
 -0.250000  0.250000 -0.000000    0.03125000   7 t-inv F
 -0.000000  0.500000 -0.000000    0.03125000   8 t-inv F
  0.250000  0.500000 -0.000000    0.03125000   9 t-inv F
  0.500000  0.500000  0.000000    0.03125000  10 t-inv F
 -0.000000  0.000000  0.500000    0.03125000  11 t-inv F
  0.250000 -0.000000  0.500000    0.03125000  12 t-inv F
  0.500000 -0.000000  0.500000    0.03125000  13 t-inv F
 -0.000000  0.250000  0.500000    0.03125000  14 t-inv F
  0.250000  0.250000  0.500000    0.03125000  15 t-inv F
  0.500000  0.250000  0.500000    0.03125000  16 t-inv F
 -0.250000  0.250000  0.500000    0.03125000  17 t-inv F
 -0.000000  0.500000  0.500000    0.03125000  18 t-inv F
  0.250000  0.500000  0.500000    0.03125000  19 t-inv F
  0.500000  0.500000  0.500000    0.03125000  20 t-inv F
 -0.250000  0.000000  0.000000    0.03125000   2 t-inv T
  0.000000 -0.250000 -0.000000    0.03125000   4 t-inv T
 -0.250000 -0.250000 -0.000000    0.03125000   5 t-inv T
 -0.500000 -0.250000  0.000000    0.03125000   6 t-inv T
  0.250000 -0.250000  0.000000    0.03125000   7 t-inv T
 -0.250000 -0.500000  0.000000    0.03125000   9 t-inv T
 -0.250000  0.000000 -0.500000    0.03125000  12 t-inv T
  0.000000 -0.250000 -0.500000    0.03125000  14 t-inv T
 -0.250000 -0.250000 -0.500000    0.03125000  15 t-inv T
 -0.500000 -0.250000 -0.500000    0.03125000  16 t-inv T
  0.250000 -0.250000 -0.500000    0.03125000  17 t-inv T
 -0.250000 -0.500000 -0.500000    0.03125000  19 t-inv T


--------------------------------------------------------------------------------------------------------




 Dimension of arrays:
   k-points           NKPTS =     20   k-points in BZ     NKDIM =     32   number of bands    NBANDS=    192
   number of dos      NEDOS =    301   number of ions     NIONS =     27
   non local maximal  LDIM  =      6   non local SUM 2l+1 LMDIM =     18
   total plane-waves  NPLWV = 193536
   max r-space proj   IRMAX =   7421   max aug-charges    IRDMAX=  17868
   dimension x,y,z NGX =    48 NGY =   48 NGZ =   84
   dimension x,y,z NGXF=    96 NGYF=   96 NGZF=  168
   support grid    NGXF=    96 NGYF=   96 NGZF=  168
   ions per type =               3   2   6  16
   NGX,Y,Z   is equivalent  to a cutoff of  13.68, 13.64, 12.47 a.u.
   NGXF,Y,Z  is equivalent  to a cutoff of  27.36, 27.29, 24.93 a.u.

 SYSTEM =  unknown system                          
 POSCAR =  Na6 Li2 Mn6 O16                         

 Startparameter for this run:
   NWRITE =      2    write-flag & timer
   PREC   = accura    normal or accurate (medium, high low for compatibility)
   ISTART =      0    job   : 0-new  1-cont  2-samecut
   ICHARG =      1    charge: 1-file 2-atom 10-const
   ISPIN  =      2    spin polarized calculation?
   LNONCOLLINEAR =      F non collinear calculations
   LSORBIT =      F    spin-orbit coupling
   INIWAV =      1    electr: 0-lowe 1-rand  2-diag
   LASPH  =      F    aspherical Exc in radial PAW
 Electronic Relaxation 1
   ENCUT  =  520.0 eV  38.22 Ry    6.18 a.u.  10.85 10.87 20.83*2*pi/ulx,y,z
   ENINI  =  520.0     initial cutoff
   ENAUG  =  628.9 eV  augmentation charge cutoff
   NELM   =    100;   NELMIN=  2; NELMDL=  0     # of ELM steps 
   EDIFF  = 0.1E-02   stopping-criterion for ELM
   LREAL  =      T    real-space projection
   NLSPLINE    = F    spline interpolate recip. space projectors
   LCOMPAT=      F    compatible to vasp.4.4
   GGA_COMPAT  = T    GGA compatible to vasp.4.4-vasp.4.6
   LMAXPAW     = -100 max onsite density
   LMAXMIX     =    4 max onsite mixed and CHGCAR
   VOSKOWN=      0    Vosko Wilk Nusair interpolation
   ROPT   =   -0.00025  -0.00025  -0.00025  -0.00025
 Ionic relaxation
   EDIFFG = 0.1E-01   stopping-criterion for IOM
   NSW    =     99    number of steps for IOM
   NBLOCK =      1;   KBLOCK =     99    inner block; outer block 
   IBRION =      2    ionic relax: 0-MD 1-quasi-New 2-CG
   NFREE  =      1    steps in history (QN), initial steepest desc. (CG)
   ISIF   =      3    stress and relaxation
   IWAVPR =     11    prediction:  0-non 1-charg 2-wave 3-comb
   ISYM   =      3    0-nonsym 1-usesym 2-fastsym
   LCORR  =      T    Harris-Foulkes like correction to forces

   POTIM  = 0.5000    time-step for ionic-motion
   TEIN   =    0.0    initial temperature
   TEBEG  =    0.0;   TEEND  =   0.0 temperature during run
   SMASS  =  -3.00    Nose mass-parameter (am)
   estimated Nose-frequenzy (Omega)   =  0.10E-29 period in steps = 0.13E+47 mass=  -0.778E-27a.u.
   SCALEE = 1.0000    scale energy and forces
   NPACO  =    256;   APACO  = 10.0  distance and # of slots for P.C.
   PSTRESS=    0.0 pullay stress

  Mass of Ions in am
   POMASS =  22.99  7.01 54.94 16.00
  Ionic Valenz
   ZVAL   =   7.00  3.00 13.00  6.00
  Atomic Wigner-Seitz radii
   RWIGS  =  -1.00 -1.00 -1.00 -1.00
  virtual crystal weights 
   VCA    =   1.00  1.00  1.00  1.00
   NELECT =     201.0000    total number of electrons
   NUPDOWN=      -1.0000    fix difference up-down

 DOS related values:
   EMIN   =  10.00;   EMAX   =-10.00  energy-range for DOS
   EFERMI =   0.00;   METHOD = LEGACY      
   ISMEAR =     0;   SIGMA  =   0.05  broadening in eV -4-tet -1-fermi 0-gaus

 Electronic relaxation 2 (details)
   IALGO  =     58    algorithm
   LDIAG  =      T    sub-space diagonalisation (order eigenvalues)
   LSUBROT=      F    optimize rotation matrix (better conditioning)
   TURBO    =      0    0=normal 1=particle mesh
   IRESTART =      0    0=no restart 2=restart with 2 vectors
   NREBOOT  =      0    no. of reboots
   NMIN     =      0    reboot dimension
   EREF     =   0.00    reference energy to select bands
   IMIX   =      4    mixing-type and parameters
     AMIX     =   0.40;   BMIX     =  1.00
     AMIX_MAG =   1.60;   BMIX_MAG =  1.00
     AMIN     =   0.10
     WC   =   100.;   INIMIX=   1;  MIXPRE=   1;  MAXMIX= -45

 Intra band minimization:
   WEIMIN = 0.0010     energy-eigenvalue tresh-hold
   EBREAK =  0.18E-05  absolut break condition
   DEPER  =   0.30     relativ break condition  

   TIME   =   0.40     timestep for ELM

  volume/ion in A,a.u.               =      12.31        83.06
  Fermi-wavevector in a.u.,A,eV,Ry     =   1.384477  2.616283 26.079342  1.916778
  Thomas-Fermi vector in A             =   2.508978
 
 Write flags
   LWAVE        =      F    write WAVECAR
   LDOWNSAMPLE  =      F    k-point downsampling of WAVECAR
   LCHARG       =      T    write CHGCAR
   LVTOT        =      F    write LOCPOT, total local potential
   LVHAR        =      F    write LOCPOT, Hartree potential only
   LELF         =      F    write electronic localiz. function (ELF)
   LORBIT       =     11    0 simple, 1 ext, 2 COOP (PROOUT), +10 PAW based schemes


 Dipole corrections
   LMONO  =      F    monopole corrections only (constant potential shift)
   LDIPOL =      F    correct potential (dipole corrections)
   IDIPOL =      0    1-x, 2-y, 3-z, 4-all directions 
   EPSILON=  1.0000000 bulk dielectric constant

 Exchange correlation treatment:
   GGA     =    --    GGA type
   LEXCH   =     8    internal setting for exchange type
   LIBXC   =     F    Libxc                    
   VOSKOWN =     0    Vosko Wilk Nusair interpolation
   EXXOEP  =     0    0=HF, 1=EXX-LHF (local Hartree Fock) 2=EXX OEP
   LHFCALC =     T    Hartree Fock is set to
   LSYMGRAD=     F    symmetrize gradient (conserves proper symmetry)
   PRECFOCK=fast      Normal, Fast or Accurate (Low or Medium for compatibility)
   LRHFCALC=     F    long range Hartree Fock
   LRSCOR  =     F    long range correlation only (use DFT for short range part)
   LTHOMAS =     F    Thomas Fermi screening in HF
   LMODELHF=     F    short range full HF, long range fraction AEXX
   FOCKCORR=     1    mode to apply convergence corrections
   LFOCKACE=     T    use Adeptively-Compressed-Exchange operator
   ENCUT4O =  -1.0   cutoff for four orbital integrals eV
   LMAXFOCK=     4    L truncation for augmentation on plane wave grid
   LMAXFOCKAE=  -1    L truncation for all-electron charge restoration on plane wave grid
   NMAXFOCKAE=   1    number of basis functions for all-electron charge restoration
   LFOCKAEDFT=     F  apply the AE augmentation even for DFT
   NKREDX  =     1    reduce k-point grid by
   NKREDY  =     1    reduce k-point grid by
   NKREDZ  =     1    reduce k-point grid by
   SHIFTRED=     F    shift reduced grid of Gamma
   HFKIDENT=     F    idential grid for each k-point
   ODDONLY =     F    use only odd q-grid points
   EVENONLY=     F    use only even q-grid points
   HFALPHA =   -1.0000 decay constant for conv. correction
   MCALPHA =    0.0000 extent of test-charge in conv. correction in multipole expansion
   AEXX    =    0.2500 exact exchange contribution
   HFSCREEN=    0.2000 screening length (either q_TF or 0.3 A-1)
   HFSCREENC=   0.2000 screening length for correlation (either q_TF or 0.3 A-1)
   HFRCUT  =    0.0000 spherical cutoff for potential kernel
   ALDAX   =    0.7500 LDA exchange part
   AGGAX   =    0.7500 GGA exchange part
   ALDAC   =    1.0000 LDA correlation
   AGGAC   =    1.0000 GGA correlation
   ENCUTFOCK=  -1.0 apply spherical cutoff to Coloumb kernel
   NBANDSGWLOW=     1    first orbital included in HF term
   NBLOCK_FOCK=    64    blocking factor in FOCK_ACC

 Linear response parameters
   LEPSILON=     F    determine dielectric tensor
   LRPA    =     F    only Hartree local field effects (RPA)
   LNABLA  =     F    use nabla operator in PAW spheres
   LVEL    =     F    velocity operator in full k-point grid
   CSHIFT  =0.1000    complex shift for real part using Kramers Kronig
   OMEGAMAX=  -1.0    maximum frequency
   DEG_THRESHOLD= 0.2000000E-02 threshold for treating states as degnerate
   RTIME   =   -0.100 relaxation time in fs
  (WPLASMAI=    0.000 imaginary part of plasma frequency in eV, 0.658/RTIME)
   DFIELD  = 0.0000000 0.0000000 0.0000000 field for delta impulse in time
 
  Optional k-point grid parameters
   LKPOINTS_OPT  =     F    use optional k-point grid
   KPOINTS_OPT_MODE=     1    mode for optional k-point grid
 
 Orbital magnetization related:
   ORBITALMAG=     F  switch on orbital magnetization
   LCHIMAG   =     F  perturbation theory with respect to B field
   DQ        =  0.001000  dq finite difference perturbation B field
   LLRAUG    =     F  two centre corrections for induced B field
   LBONE     =     F  B-component reconstruction in AE one-centre
   LVGVCALC  =     T  calculate vGv susceptibility
   LVGVAPPL  =     F  apply vGv susceptibility instead of pGv for G=0

 Random number generation:
   RANDOM_GENERATOR = DEFAULT
   PCG_SEED         = not used


--------------------------------------------------------------------------------------------------------


 conjugate gradient relaxation of ions
 charge density and potential will be updated during run
 spin polarized calculation
 Conjugate gradient for all bands (Freysoldt, et al. PRB 79, 241103 (2009))
 preconditioned conjugated gradient                                        
 perform sub-space diagonalisation
    before iterative eigenvector-optimisation
 modified Broyden-mixing scheme, WC =      100.0
 initial mixing is a Kerker type mixing with AMIX =  0.4000 and BMIX =      1.0000
 Hartree-type preconditioning will be used
 using additional bands           91
 real space projection scheme for non local part
 use partial core corrections
 no Harris-corrections to forces 
 use gradient corrections 
 use of overlap-Matrix (Vanderbilt PP)
 Gauss-broadening in eV      SIGMA  =   0.05


--------------------------------------------------------------------------------------------------------


  energy-cutoff  :      520.00
  volume of cell :      332.32
      direct lattice vectors                 reciprocal lattice vectors
    -2.931381112 -5.043185528 -0.053420877    -0.170294473 -0.099321925  0.001813882
    -2.946467367  5.052172387  0.013441447    -0.169982670  0.098798054  0.000506753
    -0.076281769 -0.073786575-11.201933281     0.000608151  0.000592206 -0.089278347

  length of vectors
     5.833486889  5.848614917 11.202436012     0.197150558  0.196609817  0.089282382


 
 k-points in units of 2pi/SCALE and weight: pymatgen with grid density = 1046 / numb
   0.00000000  0.00000000  0.00000000       0.031
  -0.04257362 -0.02483048  0.00045347       0.062
  -0.08514724 -0.04966096  0.00090694       0.031
  -0.04249567  0.02469951  0.00012669       0.062
  -0.08506929 -0.00013097  0.00058016       0.062
  -0.12764290 -0.02496145  0.00103363       0.062
   0.00007795  0.04952999 -0.00032678       0.062
  -0.08499133  0.04939903  0.00025338       0.031
  -0.12756495  0.02456855  0.00070685       0.062
  -0.17013857 -0.00026194  0.00116032       0.031
   0.00030408  0.00029610 -0.04463917       0.031
  -0.04226954 -0.02453438 -0.04418570       0.062
  -0.08484316 -0.04936486 -0.04373223       0.031
  -0.04219159  0.02499562 -0.04451249       0.062
  -0.08476521  0.00016514 -0.04405901       0.062
  -0.12733883 -0.02466535 -0.04360554       0.062
   0.00038203  0.04982610 -0.04496596       0.062
  -0.08468726  0.04969513 -0.04438580       0.031
  -0.12726088  0.02486465 -0.04393233       0.062
  -0.16983450  0.00003417 -0.04347886       0.031
 
 k-points in reciprocal lattice and weights: pymatgen with grid density = 1046 / numb
   0.00000000  0.00000000  0.00000000       0.031
   0.25000000 -0.00000000 -0.00000000       0.062
   0.50000000 -0.00000000 -0.00000000       0.031
  -0.00000000  0.25000000  0.00000000       0.062
   0.25000000  0.25000000  0.00000000       0.062
   0.50000000  0.25000000 -0.00000000       0.062
  -0.25000000  0.25000000 -0.00000000       0.062
  -0.00000000  0.50000000 -0.00000000       0.031
   0.25000000  0.50000000 -0.00000000       0.062
   0.50000000  0.50000000  0.00000000       0.031
  -0.00000000  0.00000000  0.50000000       0.031
   0.25000000 -0.00000000  0.50000000       0.062
   0.50000000 -0.00000000  0.50000000       0.031
  -0.00000000  0.25000000  0.50000000       0.062
   0.25000000  0.25000000  0.50000000       0.062
   0.50000000  0.25000000  0.50000000       0.062
  -0.25000000  0.25000000  0.50000000       0.062
  -0.00000000  0.50000000  0.50000000       0.031
   0.25000000  0.50000000  0.50000000       0.062
   0.50000000  0.50000000  0.50000000       0.031
 
 position of ions in fractional coordinates (direct lattice) 
   0.32744814  0.68663265  0.25062786
   0.16038390  0.30385088  0.75085699
   0.84106398  0.15246225  0.24678660
   0.50109588  0.98219105  0.54704712
   0.00086376  0.01646435  0.01291603
   0.99591717  0.99023253  0.49214809
   0.99883697  0.48921340  0.50026670
   0.49867384  0.49227967  0.49136290
   0.00051426  0.50605079  0.00098189
   0.50211347  0.00969768  0.99487947
   0.49925630  0.50952761  0.00837374
   0.31924627  0.16606664  0.57621813
   0.31519134  0.62347602  0.58624383
   0.85818682  0.16843219  0.58583564
   0.82449219  0.65922692  0.58331414
   0.16451715  0.32886204  0.40004441
   0.13568895  0.80251833  0.40296515
   0.69318161  0.35799306  0.40128324
   0.67291585  0.81989946  0.40243159
   0.17122181  0.36619783  0.09736230
   0.17350674  0.83664481  0.08320159
   0.66487367  0.33249329  0.09323188
   0.64220724  0.83877011  0.09266181
   0.36531373  0.20111459  0.91114141
   0.33675784  0.66741669  0.91092707
   0.83534177  0.19049462  0.91034820
   0.82118935  0.65179058  0.91654221
 
 position of ions in cartesian coordinates  (Angst):
  -3.00213431  1.79911182 -2.81577980
  -1.42270972  0.67085809 -8.41553350
  -2.93352942 -3.48958566 -2.80736807
  -4.40462660  2.39471425 -6.14155223
  -0.05202892  0.07787158 -0.14450939
  -5.87464255 -0.05608357 -5.55290271
  -4.40758439 -2.60264272 -5.65073720
  -2.94977108 -0.06407892 -5.52423705
  -1.49264453  2.55398985 -0.00422446
  -1.57635101 -2.55666577-11.17126643
  -2.96545573  0.05576126 -0.11362399
  -1.46909736 -0.81353800 -6.46957931
  -2.80571740  1.51708298 -6.57552163
  -3.05664116 -3.52027368 -6.60607293
  -4.40378768 -0.87057981 -6.56943026
  -1.48175981  0.80225928 -4.48563903
  -2.79308898  3.34042295 -4.51045038
  -3.11740493 -1.71681014 -4.52736646
  -4.41907800  0.71893987 -4.53293898
  -1.58833329  0.97940718 -1.09487062
  -2.98010778  3.34570797 -0.93004187
  -2.93579062 -1.68014713 -1.07542628
  -4.36103133  0.99200373 -1.06102436
  -1.73295483 -0.89350932-10.22335738
  -3.02317420  1.60635775-10.21316311
  -3.07943425 -3.31754334-10.23972393
  -4.39761408 -0.91608039-10.30215238
 


--------------------------------------------------------------------------------------------------------


 k-point   1 :   0.0000 0.0000 0.0000  plane waves:    8933
 k-point   2 :   0.2500-0.0000-0.0000  plane waves:    8956
 k-point   3 :   0.5000-0.0000-0.0000  plane waves:    8964
 k-point   4 :  -0.0000 0.2500 0.0000  plane waves:    8957
 k-point   5 :   0.2500 0.2500 0.0000  plane waves:    8958
 k-point   6 :   0.5000 0.2500-0.0000  plane waves:    8954
 k-point   7 :  -0.2500 0.2500-0.0000  plane waves:    8936
 k-point   8 :  -0.0000 0.5000-0.0000  plane waves:    8962
 k-point   9 :   0.2500 0.5000-0.0000  plane waves:    8945
 k-point  10 :   0.5000 0.5000 0.0000  plane waves:    8948
 k-point  11 :  -0.0000 0.0000 0.5000  plane waves:    8906
 k-point  12 :   0.2500-0.0000 0.5000  plane waves:    8935
 k-point  13 :   0.5000-0.0000 0.5000  plane waves:    8966
 k-point  14 :  -0.0000 0.2500 0.5000  plane waves:    8950
 k-point  15 :   0.2500 0.2500 0.5000  plane waves:    8971
 k-point  16 :   0.5000 0.2500 0.5000  plane waves:    8967
 k-point  17 :  -0.2500 0.2500 0.5000  plane waves:    8937
 k-point  18 :  -0.0000 0.5000 0.5000  plane waves:    8978
 k-point  19 :   0.2500 0.5000 0.5000  plane waves:    8958
 k-point  20 :   0.5000 0.5000 0.5000  plane waves:    8976

 maximum and minimum number of plane-waves per node :      8978     8906

 maximum number of plane-waves:      8978
 maximum index in each direction: 
   IXMAX=   11   IYMAX=   10   IZMAX=   20
   IXMIN=  -11   IYMIN=  -11   IZMIN=  -21


 serial   3D FFT for wavefunctions
 parallel 3D FFT for charge:
    minimum data exchange during FFTs selected (reduces bandwidth)


 FFT grid for exact exchange (Hartree Fock) 
  NGX = 24; NGY = 24; NGZ = 48

 
 Radii for the augmentation spheres in the non-local exchange
 for species   1 augmentation radius   1.249 (default was   0.925)
       energy cutoff for augmentation   2080.0
 for species   2 augmentation radius   0.956 (default was   0.708)
       energy cutoff for augmentation   2080.0
 for species   3 augmentation radius   1.293 (default was   0.958)
       energy cutoff for augmentation   2080.0
 for species   4 augmentation radius   0.974 (default was   0.722)
       energy cutoff for augmentation   2080.0
 Maximum index for augmentation-charges in exchange          754
  SETUP_FOCK is finished

 total amount of memory used by VASP MPI-rank0   123326. kBytes
=======================================================================

   base      :      30000. kBytes
   nonlr-proj:      17895. kBytes
   fftplans  :       1830. kBytes
   grid      :      18683. kBytes
   one-center:        839. kBytes
   HF        :        259. kBytes
   wavefun   :      53820. kBytes
 
     INWAV:  cpu time      0.0000: real time      0.0001
 Broyden mixing: mesh for mixing (old mesh)
   NGX = 21   NGY = 21   NGZ = 41
  (NGX  = 96   NGY  = 96   NGZ  =168)
  gives a total of  18081 points

 initial charge density was supplied:
 charge density of overlapping atoms calculated
 number of electron     201.0000000 magnetization      30.6000000
 charge density for first step will be calculated from the start-wavefunctions


--------------------------------------------------------------------------------------------------------


 Maximum index for non-local projection operator         7160
 Maximum index for augmentation-charges          715 (set IRDMAX)


--------------------------------------------------------------------------------------------------------


 First call to EWALD:  gamma=   0.256
 Maximum number of real-space cells 4x 4x 2
 Maximum number of reciprocal cells 2x 2x 4

    FEWALD:  cpu time      0.0040: real time      0.0040


--------------------------------------- Ionic step        1  -------------------------------------------




--------------------------------------- Iteration      1(   1)  ---------------------------------------


    POTLOK:  cpu time      0.2166: real time      0.2197
    SETDIJ:  cpu time      0.0432: real time      0.0436
    TRIAL :  cpu time     12.4806: real time     12.5923
    CORREC:  cpu time      0.0055: real time      0.0056
    --------------------------------------------
      LOOP:  cpu time     12.7752: real time     12.8929

 eigenvalue-minimisations  : 15360
 total energy-change (2. order) :-0.5835920E+03  (-0.1234585E+05)
 number of electron     201.0000000 magnetization      30.6000000
 augmentation part      201.0000000 magnetization      30.6000000

 Free energy of the ion-electron system (eV)
  ---------------------------------------------------
  alpha Z        PSCENC =       649.05426948
  Ewald energy   TEWEN  =    -10743.83930894
  -Hartree energ DENC   =     -9396.05946018
  -exchange      EXHF   =         0.00000000
  -V(xc)+E(xc)   XCENC  =       957.35829581
  PAW double counting   =     17083.12956280   -19955.55392584
  entropy T*S    EENTRO =        -0.01186295
  eigenvalues    EBANDS =      -866.15310578
  atomic energy  EATOM  =     21688.48351686
  ---------------------------------------------------
  free energy    TOTEN  =      -583.59201874 eV

  energy without entropy =     -583.58015580  energy(sigma->0) =     -583.58608727
  exchange ACFDT corr.  =         0.00000000  see jH, gK, PRB 81, 115126


--------------------------------------------------------------------------------------------------------




--------------------------------------- Iteration      1(   2)  ---------------------------------------


    TRIAL :  cpu time     12.6645: real time     12.7120
    CORREC:  cpu time      0.0009: real time      0.0009
    --------------------------------------------
      LOOP:  cpu time     12.6663: real time     12.7138

 eigenvalue-minimisations  : 16256
 total energy-change (2. order) :-0.2065135E+04  (-0.1947448E+04)
 number of electron     201.0000000 magnetization      30.6000000
 augmentation part      201.0000000 magnetization      30.6000000

 Free energy of the ion-electron system (eV)
  ---------------------------------------------------
  alpha Z        PSCENC =       649.05426948
  Ewald energy   TEWEN  =    -10743.83930894
  -Hartree energ DENC   =     -9396.05946018
  -exchange      EXHF   =         0.00000000
  -V(xc)+E(xc)   XCENC  =       957.35829581
  PAW double counting   =     17083.12956280   -19955.55392584
  entropy T*S    EENTRO =        -0.01976661
  eigenvalues    EBANDS =     -2931.28036577
  atomic energy  EATOM  =     21688.48351686
  ---------------------------------------------------
  free energy    TOTEN  =     -2648.72718239 eV

  energy without entropy =    -2648.70741579  energy(sigma->0) =    -2648.71729909
  exchange ACFDT corr.  =         0.00000000  see jH, gK, PRB 81, 115126


--------------------------------------------------------------------------------------------------------




--------------------------------------- Iteration      1(   3)  ---------------------------------------


    TRIAL :  cpu time     17.9680: real time     18.0360
    CORREC:  cpu time      0.0008: real time      0.0008
    --------------------------------------------
      LOOP:  cpu time     17.9691: real time     18.0371

 eigenvalue-minimisations  : 21760
 total energy-change (2. order) :-0.1322205E+03  (-0.1311303E+03)
 number of electron     201.0000000 magnetization      30.6000000
 augmentation part      201.0000000 magnetization      30.6000000

 Free energy of the ion-electron system (eV)
  ---------------------------------------------------
  alpha Z        PSCENC =       649.05426948
  Ewald energy   TEWEN  =    -10743.83930894
  -Hartree energ DENC   =     -9396.05946018
  -exchange      EXHF   =         0.00000000
  -V(xc)+E(xc)   XCENC  =       957.35829581
  PAW double counting   =     17083.12956280   -19955.55392584
  entropy T*S    EENTRO =        -0.03861206
  eigenvalues    EBANDS =     -3063.48199698
  atomic energy  EATOM  =     21688.48351686
  ---------------------------------------------------
  free energy    TOTEN  =     -2780.94765906 eV

  energy without entropy =    -2780.90904699  energy(sigma->0) =    -2780.92835303
  exchange ACFDT corr.  =         0.00000000  see jH, gK, PRB 81, 115126


--------------------------------------------------------------------------------------------------------




--------------------------------------- Iteration      1(   4)  ---------------------------------------


    TRIAL :  cpu time     14.6472: real time     14.7055
    CORREC:  cpu time      0.0008: real time      0.0008
    --------------------------------------------
      LOOP:  cpu time     14.6484: real time     14.7066

 eigenvalue-minimisations  : 18816
 total energy-change (2. order) :-0.2455062E+01  (-0.2453611E+01)
 number of electron     201.0000000 magnetization      30.6000000
 augmentation part      201.0000000 magnetization      30.6000000

 Free energy of the ion-electron system (eV)
  ---------------------------------------------------
  alpha Z        PSCENC =       649.05426948
  Ewald energy   TEWEN  =    -10743.83930894
  -Hartree energ DENC   =     -9396.05946018
  -exchange      EXHF   =         0.00000000
  -V(xc)+E(xc)   XCENC  =       957.35829581
  PAW double counting   =     17083.12956280   -19955.55392584
  entropy T*S    EENTRO =        -0.03885114
  eigenvalues    EBANDS =     -3065.93682010
  atomic energy  EATOM  =     21688.48351686
  ---------------------------------------------------
  free energy    TOTEN  =     -2783.40272125 eV

  energy without entropy =    -2783.36387011  energy(sigma->0) =    -2783.38329568
  exchange ACFDT corr.  =         0.00000000  see jH, gK, PRB 81, 115126


--------------------------------------------------------------------------------------------------------




--------------------------------------- Iteration      1(   5)  ---------------------------------------


    POTLOK:  cpu time      0.0954: real time      0.0957
    SETDIJ:  cpu time      0.0675: real time      0.0678
    TRIAL :  cpu time    557.7339: real time    559.4515
    CORREC:  cpu time      0.0007: real time      0.0007
    CHARGE:  cpu time      0.3906: real time      0.3931
    --------------------------------------------
      LOOP:  cpu time    558.2886: real time    560.0094

 eigenvalue-minimisations  : 19648
 total energy-change (2. order) : 0.2458343E+04  (-0.3536953E+01)
 number of electron     200.9999998 magnetization      15.0000006
 augmentation part       63.6012748 magnetization       9.5055356

 Free energy of the ion-electron system (eV)
  ---------------------------------------------------
  alpha Z        PSCENC =       649.05426948
  Ewald energy   TEWEN  =    -10743.83930894
  -Hartree energ DENC   =     -9396.05946018
  -exchange      EXHF   =       637.37335491
  -V(xc)+E(xc)   XCENC  =       731.25336375
  PAW double counting   =     17299.88963418   -17822.66274356
  entropy T*S    EENTRO =        -0.01165428
  eigenvalues    EBANDS =     -3368.54088427
  atomic energy  EATOM  =     21688.48351686
  ---------------------------------------------------
  free energy    TOTEN  =      -325.05991204 eV

  energy without entropy =     -325.04825776  energy(sigma->0) =     -325.05408490
  exchange ACFDT corr.  =        -0.32475863  see jH, gK, PRB 81, 115126


--------------------------------------------------------------------------------------------------------




--------------------------------------- Iteration      1(   6)  ---------------------------------------


    POTLOK:  cpu time      0.0955: real time      0.0957
    SETDIJ:  cpu time      0.0669: real time      0.0671
    TRIAL :  cpu time    542.6186: real time    544.7407
    CORREC:  cpu time    538.5664: real time    540.3063
    CHARGE:  cpu time      0.3932: real time      0.3944
    --------------------------------------------
      LOOP:  cpu time   1081.7416: real time   1085.6051

 eigenvalue-minimisations  :     0
 total energy-change (2. order) : 0.3794649E+03  (-0.2144897E+03)
 number of electron     200.9999999 magnetization      15.0000403
 augmentation part       68.4529460 magnetization      11.9057692

 Free energy of the ion-electron system (eV)
  ---------------------------------------------------
  alpha Z        PSCENC =       649.05426948
  Ewald energy   TEWEN  =    -10743.83930894
  -Hartree energ DENC   =     -8449.84976405
  -exchange      EXHF   =       642.19487000
  -V(xc)+E(xc)   XCENC  =       735.99624142
  PAW double counting   =     20488.56935800   -21008.12526392
  entropy T*S    EENTRO =        -0.00574564
  eigenvalues    EBANDS =     -3948.06724420
  atomic energy  EATOM  =     21688.48351686
  ---------------------------------------------------
  free energy    TOTEN  =        54.40502037 eV

  energy without entropy =       54.41076602  energy(sigma->0) =       54.40789319
  exchange ACFDT corr.  =        -0.08440027  see jH, gK, PRB 81, 115126


--------------------------------------------------------------------------------------------------------




--------------------------------------- Iteration      1(   7)  ---------------------------------------


    POTLOK:  cpu time      0.0961: real time      0.0963
    SETDIJ:  cpu time      0.0664: real time      0.0666
    TRIAL :  cpu time    543.0635: real time    544.9678
    CORREC:  cpu time    540.3278: real time    542.2657
    CHARGE:  cpu time      0.3905: real time      0.3914
    --------------------------------------------
      LOOP:  cpu time   1083.9449: real time   1087.7883

 eigenvalue-minimisations  :     0
 total energy-change (2. order) :-0.2107634E+03  (-0.3453211E+02)
 number of electron     201.0000001 magnetization      15.3230251
 augmentation part       69.2415522 magnetization      12.4711080

 Free energy of the ion-electron system (eV)
  ---------------------------------------------------
  alpha Z        PSCENC =       649.05426948
  Ewald energy   TEWEN  =    -10743.83930894
  -Hartree energ DENC   =     -8912.01348506
  -exchange      EXHF   =       613.87043975
  -V(xc)+E(xc)   XCENC  =       730.55794283
  PAW double counting   =     23368.17347510   -24006.13119696
  entropy T*S    EENTRO =        -0.01201103
  eigenvalues    EBANDS =     -3544.50828232
  atomic energy  EATOM  =     21688.48351686
  ---------------------------------------------------
  free energy    TOTEN  =      -156.35837491 eV

  energy without entropy =     -156.34636387  energy(sigma->0) =     -156.35236939
  exchange ACFDT corr.  =       -14.09038562  see jH, gK, PRB 81, 115126


--------------------------------------------------------------------------------------------------------




--------------------------------------- Iteration      1(   8)  ---------------------------------------


    POTLOK:  cpu time      0.0964: real time      0.0968
    SETDIJ:  cpu time      0.0665: real time      0.0667
    TRIAL :  cpu time    543.9588: real time    545.8614
    CORREC:  cpu time    540.1392: real time    541.7702
    CHARGE:  cpu time      0.3908: real time      0.3919
    --------------------------------------------
      LOOP:  cpu time   1084.6524: real time   1088.1898

 eigenvalue-minimisations  :     0
 total energy-change (2. order) :-0.3606434E+02  (-0.2511290E+02)
 number of electron     201.0000002 magnetization      15.0936207
 augmentation part       68.0475847 magnetization      12.2688539

 Free energy of the ion-electron system (eV)
  ---------------------------------------------------
  alpha Z        PSCENC =       649.05426948
  Ewald energy   TEWEN  =    -10743.83930894
  -Hartree energ DENC   =     -9243.74671922
  -exchange      EXHF   =       606.37750509
  -V(xc)+E(xc)   XCENC  =       731.62131771
  PAW double counting   =     23996.96765140   -24633.39875390
  entropy T*S    EENTRO =        -0.00698050
  eigenvalues    EBANDS =     -3243.93018396
  atomic energy  EATOM  =     21688.48351686
  ---------------------------------------------------
  free energy    TOTEN  =      -192.42271651 eV

  energy without entropy =     -192.41573601  energy(sigma->0) =     -192.41922626
  exchange ACFDT corr.  =        -4.84171362  see jH, gK, PRB 81, 115126


--------------------------------------------------------------------------------------------------------




--------------------------------------- Iteration      1(   9)  ---------------------------------------


    POTLOK:  cpu time      0.0979: real time      0.0982
    SETDIJ:  cpu time      0.0667: real time      0.0668
    TRIAL :  cpu time    543.9270: real time    545.5341
    CORREC:  cpu time    540.0001: real time    542.0446
    CHARGE:  cpu time      0.3913: real time      0.3923
    --------------------------------------------
      LOOP:  cpu time   1084.4836: real time   1088.1366

 eigenvalue-minimisations  :     0
 total energy-change (2. order) :-0.2441104E+02  (-0.1112323E+02)
 number of electron     201.0000000 magnetization      15.0000007
 augmentation part       67.1556500 magnetization      11.9397142

 Free energy of the ion-electron system (eV)
  ---------------------------------------------------
  alpha Z        PSCENC =       649.05426948
  Ewald energy   TEWEN  =    -10743.83930894
  -Hartree energ DENC   =     -9274.93544761
  -exchange      EXHF   =       603.36916322
  -V(xc)+E(xc)   XCENC  =       729.50285109
  PAW double counting   =     23313.66558107   -23903.46938236
  entropy T*S    EENTRO =        -0.00898586
  eigenvalues    EBANDS =     -3278.65801791
  atomic energy  EATOM  =     21688.48351686
  ---------------------------------------------------
  free energy    TOTEN  =      -216.83375560 eV

  energy without entropy =     -216.82476973  energy(sigma->0) =     -216.82926267
  exchange ACFDT corr.  =        -1.71515471  see jH, gK, PRB 81, 115126


--------------------------------------------------------------------------------------------------------




--------------------------------------- Iteration      1(  10)  ---------------------------------------


    POTLOK:  cpu time      0.0953: real time      0.0955
    SETDIJ:  cpu time      0.0663: real time      0.0665
    TRIAL :  cpu time    543.9176: real time    545.5791
    CORREC:  cpu time    540.8934: real time    542.5046
    CHARGE:  cpu time      0.3932: real time      0.3942
    --------------------------------------------
      LOOP:  cpu time   1085.3715: real time   1088.6534

 eigenvalue-minimisations  :     0
 total energy-change (2. order) :-0.1117019E+02  (-0.4694819E+01)
 number of electron     201.0000000 magnetization      15.0000006
 augmentation part       67.2755022 magnetization      11.7275583

 Free energy of the ion-electron system (eV)
  ---------------------------------------------------
  alpha Z        PSCENC =       649.05426948
  Ewald energy   TEWEN  =    -10743.83930894
  -Hartree energ DENC   =     -9193.01858941
  -exchange      EXHF   =       604.22205239
  -V(xc)+E(xc)   XCENC  =       728.95550178
  PAW double counting   =     22519.57009420   -23079.36520589
  entropy T*S    EENTRO =        -0.00993869
  eigenvalues    EBANDS =     -3402.05729330
  atomic energy  EATOM  =     21688.48351686
  ---------------------------------------------------
  free energy    TOTEN  =      -228.00394868 eV

  energy without entropy =     -227.99400999  energy(sigma->0) =     -227.99897933
  exchange ACFDT corr.  =        -1.58004535  see jH, gK, PRB 81, 115126


--------------------------------------------------------------------------------------------------------




--------------------------------------- Iteration      1(  11)  ---------------------------------------


    POTLOK:  cpu time      0.0969: real time      0.0971
    SETDIJ:  cpu time      0.0668: real time      0.0669
    TRIAL :  cpu time    542.5958: real time    544.3431
    CORREC:  cpu time    541.0737: real time    542.4441
    CHARGE:  cpu time      0.3954: real time      0.3964
    --------------------------------------------
      LOOP:  cpu time   1084.2291: real time   1087.3482

 eigenvalue-minimisations  :     0
 total energy-change (2. order) :-0.4662348E+01  (-0.2093403E+01)
 number of electron     201.0000000 magnetization      15.0000006
 augmentation part       67.8130128 magnetization      11.7477224

 Free energy of the ion-electron system (eV)
  ---------------------------------------------------
  alpha Z        PSCENC =       649.05426948
  Ewald energy   TEWEN  =    -10743.83930894
  -Hartree energ DENC   =     -9187.80465138
  -exchange      EXHF   =       605.81913311
  -V(xc)+E(xc)   XCENC  =       730.54458001
  PAW double counting   =     22088.83094388   -22644.31334517
  entropy T*S    EENTRO =        -0.00617212
  eigenvalues    EBANDS =     -3419.43149604
  atomic energy  EATOM  =     21688.48351686
  ---------------------------------------------------
  free energy    TOTEN  =      -232.66629688 eV

  energy without entropy =     -232.66012476  energy(sigma->0) =     -232.66321082
  exchange ACFDT corr.  =        -1.13022373  see jH, gK, PRB 81, 115126


--------------------------------------------------------------------------------------------------------




--------------------------------------- Iteration      1(  12)  ---------------------------------------


    POTLOK:  cpu time      0.0967: real time      0.0970
    SETDIJ:  cpu time      0.0669: real time      0.0671
    TRIAL :  cpu time    543.1285: real time    545.1360
    CORREC:  cpu time    540.7855: real time    542.2464
    CHARGE:  cpu time      0.3937: real time      0.3954
    --------------------------------------------
      LOOP:  cpu time   1084.4718: real time   1087.9423

 eigenvalue-minimisations  :     0
 total energy-change (2. order) :-0.2031599E+01  (-0.1122868E+01)
 number of electron     201.0000000 magnetization      15.0000006
 augmentation part       68.1275181 magnetization      11.8230280

 Free energy of the ion-electron system (eV)
  ---------------------------------------------------
  alpha Z        PSCENC =       649.05426948
  Ewald energy   TEWEN  =    -10743.83930894
  -Hartree energ DENC   =     -9238.97488964
  -exchange      EXHF   =       606.46139048
  -V(xc)+E(xc)   XCENC  =       732.34309201
  PAW double counting   =     21952.71160862   -22514.54215592
  entropy T*S    EENTRO =        -0.00451492
  eigenvalues    EBANDS =     -3366.38924695
  atomic energy  EATOM  =     21688.48351686
  ---------------------------------------------------
  free energy    TOTEN  =      -234.69789611 eV

  energy without entropy =     -234.69338120  energy(sigma->0) =     -234.69563866
  exchange ACFDT corr.  =        -0.10852561  see jH, gK, PRB 81, 115126


--------------------------------------------------------------------------------------------------------




--------------------------------------- Iteration      1(  13)  ---------------------------------------


    POTLOK:  cpu time      0.0963: real time      0.0967
    SETDIJ:  cpu time      0.0672: real time      0.0674
    TRIAL :  cpu time    543.3604: real time    545.1326
    CORREC:  cpu time    542.7574: real time    544.1819
    CHARGE:  cpu time      0.3963: real time      0.3975
    --------------------------------------------
      LOOP:  cpu time   1086.6783: real time   1089.8766

 eigenvalue-minimisations  :     0
 total energy-change (2. order) :-0.1120663E+01  (-0.7300599E+00)
 number of electron     201.0000000 magnetization      15.0000006
 augmentation part       68.0465493 magnetization      11.9189422

 Free energy of the ion-electron system (eV)
  ---------------------------------------------------
  alpha Z        PSCENC =       649.05426948
  Ewald energy   TEWEN  =    -10743.83930894
  -Hartree energ DENC   =     -9257.93430512
  -exchange      EXHF   =       606.19161280
  -V(xc)+E(xc)   XCENC  =       732.80572049
  PAW double counting   =     21895.91096863   -22462.97035519
  entropy T*S    EENTRO =        -0.00635576
  eigenvalues    EBANDS =     -3343.51616365
  atomic energy  EATOM  =     21688.48351686
  ---------------------------------------------------
  free energy    TOTEN  =      -235.81855956 eV

  energy without entropy =     -235.81220380  energy(sigma->0) =     -235.81538168
  exchange ACFDT corr.  =        -0.06783310  see jH, gK, PRB 81, 115126


--------------------------------------------------------------------------------------------------------




--------------------------------------- Iteration      1(  14)  ---------------------------------------


    POTLOK:  cpu time      0.0964: real time      0.0967
    SETDIJ:  cpu time      0.0675: real time      0.0676
    TRIAL :  cpu time    544.9083: real time    546.4472
    CORREC:  cpu time    541.7094: real time    543.2497
    CHARGE:  cpu time      0.3945: real time      0.3955
    --------------------------------------------
      LOOP:  cpu time   1087.1769: real time   1090.2574

 eigenvalue-minimisations  :     0
 total energy-change (2. order) :-0.7304750E+00  (-0.5793404E+00)
 number of electron     200.9999999 magnetization      15.0000006
 augmentation part       67.8202052 magnetization      12.0705460

 Free energy of the ion-electron system (eV)
  ---------------------------------------------------
  alpha Z        PSCENC =       649.05426948
  Ewald energy   TEWEN  =    -10743.83930894
  -Hartree energ DENC   =     -9226.08277194
  -exchange      EXHF   =       605.75590640
  -V(xc)+E(xc)   XCENC  =       732.06698130
  PAW double counting   =     21857.04035389   -22423.71360564
  entropy T*S    EENTRO =        -0.00906341
  eigenvalues    EBANDS =     -3375.30802021
  atomic energy  EATOM  =     21688.48351686
  ---------------------------------------------------
  free energy    TOTEN  =      -236.54903456 eV

  energy without entropy =     -236.53997115  energy(sigma->0) =     -236.54450285
  exchange ACFDT corr.  =        -0.12882072  see jH, gK, PRB 81, 115126


--------------------------------------------------------------------------------------------------------




--------------------------------------- Iteration      1(  15)  ---------------------------------------


    POTLOK:  cpu time      0.0958: real time      0.0960
    SETDIJ:  cpu time      0.0671: real time      0.0672
    TRIAL :  cpu time    543.4597: real time    544.8366
    CORREC:  cpu time    540.2709: real time    542.1308
    CHARGE:  cpu time      0.3921: real time      0.3931
    --------------------------------------------
      LOOP:  cpu time   1084.2860: real time   1087.5243

 eigenvalue-minimisations  :     0
 total energy-change (2. order) :-0.5771846E+00  (-0.5074895E+00)
 number of electron     200.9999999 magnetization      15.0000006
 augmentation part       67.7565145 magnetization      12.2839126

 Free energy of the ion-electron system (eV)
  ---------------------------------------------------
  alpha Z        PSCENC =       649.05426948
  Ewald energy   TEWEN  =    -10743.83930894
  -Hartree energ DENC   =     -9185.75990574
  -exchange      EXHF   =       606.04891040
  -V(xc)+E(xc)   XCENC  =       731.38125990
  PAW double counting   =     21857.53142520   -22421.23292720
  entropy T*S    EENTRO =        -0.00875210
  eigenvalues    EBANDS =     -3418.78439571
  atomic energy  EATOM  =     21688.48351686
  ---------------------------------------------------
  free energy    TOTEN  =      -237.12621915 eV

  energy without entropy =     -237.11746705  energy(sigma->0) =     -237.12184310
  exchange ACFDT corr.  =        -0.17412004  see jH, gK, PRB 81, 115126


--------------------------------------------------------------------------------------------------------




--------------------------------------- Iteration      1(  16)  ---------------------------------------


    POTLOK:  cpu time      0.0970: real time      0.0972
    SETDIJ:  cpu time      0.0663: real time      0.0665
    TRIAL :  cpu time    544.2434: real time    545.9820
    CORREC:  cpu time    539.8676: real time    541.4547
    CHARGE:  cpu time      0.3989: real time      0.4003
    --------------------------------------------
      LOOP:  cpu time   1084.6738: real time   1088.0013

 eigenvalue-minimisations  :     0
 total energy-change (2. order) :-0.4964846E+00  (-0.3457532E+00)
 number of electron     200.9999999 magnetization      15.0000006
 augmentation part       67.8217513 magnetization      12.4627741

 Free energy of the ion-electron system (eV)
  ---------------------------------------------------
  alpha Z        PSCENC =       649.05426948
  Ewald energy   TEWEN  =    -10743.83930894
  -Hartree energ DENC   =     -9180.58400516
  -exchange      EXHF   =       607.10841483
  -V(xc)+E(xc)   XCENC  =       731.65762791
  PAW double counting   =     21935.24413947   -22497.98668630
  entropy T*S    EENTRO =        -0.00759915
  eigenvalues    EBANDS =     -3426.75191983
  atomic energy  EATOM  =     21688.48351686
  ---------------------------------------------------
  free energy    TOTEN  =      -237.62270377 eV

  energy without entropy =     -237.61510463  energy(sigma->0) =     -237.61890420
[...]
    146      17.0076      0.00000
    147      17.1440      0.00000
    148      17.2754      0.00000
    149      17.4958      0.00000
    150      17.5588      0.00000
    151      17.6243      0.00000
    152      17.7959      0.00000
    153      17.9319      0.00000
    154      18.1148      0.00000
    155      18.2459      0.00000
    156      18.3344      0.00000
    157      18.5068      0.00000
    158      18.6758      0.00000
    159      18.8849      0.00000
    160      18.9239      0.00000
    161      19.1038      0.00000
    162      19.1813      0.00000
    163      19.2949      0.00000
    164      19.4942      0.00000
    165      19.6465      0.00000
    166      19.7174      0.00000
    167      19.8687      0.00000
    168      19.9110      0.00000
    169      20.1295      0.00000
    170      20.2981      0.00000
    171      20.4277      0.00000
    172      20.4868      0.00000
    173      20.6644      0.00000
    174      21.0468      0.00000
    175      21.1429      0.00000
    176      21.3511      0.00000
    177      21.3945      0.00000
    178      22.0881      0.00000
    179      22.1435      0.00000
    180      22.3728      0.00000
    181      22.6125      0.00000
    182      22.8308      0.00000
    183      22.9152      0.00000
    184      23.2198      0.00000
    185      23.3679      0.00000
    186      23.4278      0.00000
    187      23.7623      0.00000
    188      23.8380      0.00000
    189      23.8844      0.00000
    190      24.0129      0.00000
    191      24.2575      0.00000
    192      24.5798      0.00000


--------------------------------------------------------------------------------------------------------


 soft charge-density along one line, spin component           1
         0         1         2         3         4         5         6         7         8         9
 total charge-density along one line
 
 soft charge-density along one line, spin component           2
         0         1         2         3         4         5         6         7         8         9
 total charge-density along one line
 
 pseudopotential strength for first ion, spin component:           1
-21.847  -0.005   0.003   0.421   0.002  -0.001  -0.001  -0.003
 -0.005 -21.820   0.001   0.002   0.411  -0.000  -0.009  -0.030
  0.003   0.001 -21.888  -0.001  -0.000   0.437  -0.002  -0.005
  0.421   0.002  -0.001   7.327  -0.000   0.000   0.000  -0.000
  0.002   0.411  -0.000  -0.000   7.328  -0.000   0.000  -0.002
 -0.001  -0.000   0.437   0.000  -0.000   7.326   0.000  -0.001
 -0.001  -0.009  -0.002   0.000   0.000   0.000   1.395   6.761
 -0.003  -0.030  -0.005  -0.000  -0.002  -0.001   6.761  32.490
 pseudopotential strength for first ion, spin component:           2
-21.846  -0.005   0.003   0.421   0.002  -0.001  -0.001  -0.003
 -0.005 -21.817   0.001   0.002   0.410  -0.001  -0.010  -0.031
  0.003   0.001 -21.886  -0.001  -0.001   0.437  -0.002  -0.005
  0.421   0.002  -0.001   7.327  -0.000   0.000   0.000  -0.000
  0.002   0.410  -0.001  -0.000   7.328   0.000   0.001  -0.002
 -0.001  -0.001   0.437   0.000   0.000   7.326   0.000  -0.001
 -0.001  -0.010  -0.002   0.000   0.001   0.000   1.395   6.761
 -0.003  -0.031  -0.005  -0.000  -0.002  -0.001   6.761  32.489
 total augmentation occupancy for first ion, spin component:           1
  2.004   0.000  -0.000  -0.005   0.001  -0.001   0.003  -0.001
  0.000   2.003  -0.000   0.001  -0.010  -0.000   0.038  -0.012
 -0.000  -0.000   2.004  -0.001  -0.000   0.000   0.006  -0.002
 -0.005   0.001  -0.001   0.016  -0.003   0.001   0.002  -0.000
  0.001  -0.010  -0.000  -0.003   0.029  -0.001   0.018  -0.000
 -0.001  -0.000   0.000   0.001  -0.001   0.016   0.001  -0.000
  0.003   0.038   0.006   0.002   0.018   0.001   0.492  -0.011
 -0.001  -0.012  -0.002  -0.000  -0.000  -0.000  -0.011   0.000
 total augmentation occupancy for first ion, spin component:           2
 -0.000  -0.000  -0.000   0.000   0.000  -0.000  -0.000   0.000
 -0.000  -0.000   0.000   0.000  -0.000  -0.000  -0.001   0.000
 -0.000   0.000  -0.000  -0.000  -0.000   0.000  -0.000  -0.000
  0.000   0.000  -0.000  -0.000  -0.000   0.000   0.001  -0.000
  0.000  -0.000  -0.000  -0.000   0.001   0.000   0.004  -0.000
 -0.000  -0.000   0.000   0.000   0.000  -0.000  -0.000  -0.000
 -0.000  -0.001  -0.000   0.001   0.004  -0.000   0.036  -0.001
  0.000   0.000  -0.000  -0.000  -0.000  -0.000  -0.001   0.000


------------------------ aborting loop because EDIFF is reached ----------------------------------------





 total charge

# of ion       s       p       d       tot
------------------------------------------
    1        0.049   5.997   0.000   6.046
    2        0.036   5.985   0.000   6.021
    3        0.043   5.991   0.000   6.034
    4        2.035   0.091   0.000   2.126
    5        2.028   0.079   0.000   2.107
    6        0.382   6.502   4.807  11.691
    7        0.393   6.524   4.837  11.754
    8        0.383   6.505   4.810  11.698
    9        0.392   6.525   4.830  11.747
   10        0.378   6.497   4.798  11.673
   11        0.386   6.514   4.813  11.713
   12        1.577   3.487   0.000   5.064
   13        1.579   3.489   0.000   5.068
   14        1.578   3.492   0.000   5.071
   15        1.580   3.451   0.000   5.032
   16        1.572   3.481   0.000   5.053
   17        1.591   3.356   0.000   4.947
   18        1.597   3.306   0.000   4.903
   19        1.577   3.423   0.000   5.000
   20        1.572   3.505   0.000   5.077
   21        1.577   3.472   0.000   5.049
   22        1.574   3.471   0.000   5.045
   23        1.570   3.496   0.000   5.066
   24        1.582   3.425   0.000   5.007
   25        1.578   3.462   0.000   5.039
   26        1.581   3.426   0.000   5.007
   27        1.604   3.276   0.000   4.880
--------------------------------------------------
tot         31.795 112.229  28.895 172.920



 magnetization (x)

# of ion       s       p       d       tot
------------------------------------------
    1        0.004   0.001   0.000   0.004
    2        0.003   0.001   0.000   0.004
    3        0.002   0.000   0.000   0.002
    4        0.003   0.006   0.000   0.009
    5        0.004   0.004   0.000   0.008
    6        0.031   0.044   2.971   3.047
    7        0.031   0.047   2.912   2.991
    8        0.031   0.045   2.958   3.033
    9        0.031   0.048   2.932   3.010
   10        0.031   0.044   2.987   3.061
   11        0.030   0.046   2.940   3.016
   12        0.000  -0.051   0.000  -0.051
   13        0.001  -0.025   0.000  -0.024
   14        0.001  -0.022   0.000  -0.021
   15       -0.000  -0.082   0.000  -0.083
   16        0.000  -0.062   0.000  -0.061
   17       -0.008  -0.486   0.000  -0.494
   18       -0.010  -0.624   0.000  -0.634
   19       -0.003  -0.228   0.000  -0.231
   20        0.001  -0.016   0.000  -0.016
   21        0.000  -0.084   0.000  -0.084
   22       -0.000  -0.071   0.000  -0.071
   23        0.000  -0.042   0.000  -0.041
   24       -0.003  -0.220   0.000  -0.223
   25       -0.000  -0.079   0.000  -0.079
   26       -0.002  -0.206   0.000  -0.208
   27       -0.011  -0.708   0.000  -0.719
--------------------------------------------------
tot          0.165  -2.720  17.700  15.145
 
    FORLOC:  cpu time      0.0023: real time      0.0023
    FORHF :  cpu time    940.8652: real time    944.2305
    FORNL :  cpu time      2.2371: real time      2.2434
    STRESS:  cpu time      6.6886: real time      6.7080
    FORCOR:  cpu time      0.0855: real time      0.0858
    OFIELD:  cpu time      0.0002: real time      0.0002

  FORCE on cell =-STRESS in cart. coord.  units (eV):
  Direction    XX          YY          ZZ          XY          YZ          ZX
  --------------------------------------------------------------------------------------
  Alpha Z   677.77156   677.77156   677.77156
  Ewald    -411.48608  -601.93917 -9593.43244    53.64102   176.98149   136.16214
  Hartree  5659.04390  5516.71460 -1732.64383    46.10240   137.06885   106.55418
  E(xc)    -820.30693  -820.13661  -821.74272     0.06673     0.03909    -0.03084
  Local   -8185.79346 -7869.14095  8314.92680  -103.27665  -313.06859  -237.20393
  n-local    74.85825    71.54929    71.36447    -1.14038    -0.30206     1.31867
  augment   780.66842   783.24112   792.75100     0.40126    -0.31652    -0.78787
  Kinetic  3135.29471  3153.41938  3205.44058     4.60355    -0.66545    -6.47706
  Fock     -910.66280  -911.48707  -915.83997    -0.13443     0.18299     0.31482
  -------------------------------------------------------------------------------------
  Total      -0.61244    -0.00786    -1.40455     0.26351    -0.08021    -0.14991
  in kB      -3.08326    -0.03955    -7.07111     1.32662    -0.40380    -0.75469
  external pressure =       -3.40 kB  Pullay stress =        0.00 kB


 VOLUME and BASIS-vectors are now :
 -----------------------------------------------------------------------------
  energy-cutoff  :      520.00
  volume of cell :      318.24
      direct lattice vectors                 reciprocal lattice vectors
    -2.858140452 -4.908670511 -0.047222878    -0.174378888 -0.102203739  0.001775309
    -2.886942472  4.925702468  0.001910130    -0.173768586  0.101171048  0.000840359
    -0.084493131 -0.051540330-11.266451449     0.000701441  0.000445536 -0.088766391

  length of vectors
     5.680338285  5.709376962 11.266886160     0.202130534  0.201076624  0.088770280


 FORCES acting on ions:
    Electron-Ion                     Ewald-Force                    Non-Local-Force
 -----------------------------------------------------------------------------------------------
   0.339E+02 -.287E+02 0.630E+02   -.335E+02 0.290E+02 -.604E+02   -.391E+00 -.204E+00 -.232E+01
   -.283E+02 0.268E+02 0.209E+02   0.286E+02 -.269E+02 -.205E+02   -.305E+00 0.402E-01 -.368E+00
   -.268E+02 0.154E+02 0.301E+02   0.265E+02 -.166E+02 -.287E+02   0.223E+00 0.102E+01 -.125E+01
   0.446E+00 -.152E+02 0.116E+03   -.495E+00 0.153E+02 -.118E+03   0.756E-01 -.157E+00 0.149E+01
   -.194E+02 0.211E+02 -.305E+02   0.190E+02 -.211E+02 0.291E+02   0.390E+00 0.244E-01 0.132E+01
   -.271E+02 0.577E+02 0.137E+03   0.267E+02 -.571E+02 -.138E+03   0.336E+00 -.554E+00 0.191E+01
   -.989E+01 -.907E+02 0.240E+03   0.947E+01 0.891E+02 -.242E+03   0.358E+00 0.145E+01 0.234E+01
   0.267E+02 0.689E+02 0.125E+03   -.262E+02 -.676E+02 -.127E+03   -.365E+00 -.123E+01 0.219E+01
   -.181E+00 -.858E+02 -.207E+03   -.434E+00 0.843E+02 0.207E+03   0.417E+00 0.146E+01 0.850E+00
   -.700E+01 -.211E+02 -.297E+03   0.729E+01 0.212E+02 0.297E+03   -.185E+00 -.240E+00 0.449E+00
   0.509E+02 0.660E+02 -.110E+03   -.496E+02 -.647E+02 0.110E+03   -.130E+01 -.113E+01 0.416E+00
   -.532E+01 0.231E+03 0.439E+03   0.532E+01 -.241E+03 -.457E+03   0.125E-01 0.858E+01 0.162E+02
   0.189E+03 -.110E+03 0.491E+03   -.197E+03 0.114E+03 -.513E+03   0.710E+01 -.345E+01 0.186E+02
   -.199E+03 -.108E+03 0.481E+03   0.208E+03 0.112E+03 -.501E+03   -.734E+01 -.356E+01 0.179E+02
   -.874E+00 -.111E+02 0.575E+03   0.105E+01 0.124E+02 -.601E+03   -.145E+00 -.116E+01 0.232E+02
   -.225E+00 0.539E+02 -.387E+03   0.911E-01 -.554E+02 0.408E+03   0.116E+00 0.138E+01 -.181E+02
   0.170E+03 0.414E+02 -.323E+03   -.179E+03 -.447E+02 0.340E+03   0.768E+01 0.288E+01 -.150E+02
   -.164E+03 0.474E+02 -.336E+03   0.173E+03 -.508E+02 0.354E+03   -.743E+01 0.302E+01 -.154E+02
   0.537E+01 -.152E+03 -.292E+03   -.550E+01 0.161E+03 0.307E+03   0.101E+00 -.781E+01 -.134E+02
   -.149E+03 0.126E+03 0.321E+03   0.157E+03 -.132E+03 -.338E+03   -.710E+01 0.511E+01 0.150E+02
   0.121E+01 -.230E+03 0.305E+03   -.154E+01 0.242E+03 -.323E+03   0.324E+00 -.102E+02 0.155E+02
   -.109E+02 -.356E+02 0.411E+03   0.118E+02 0.360E+02 -.433E+03   -.806E+00 -.410E+00 0.197E+02
   0.153E+03 0.125E+03 0.284E+03   -.161E+03 -.130E+03 -.300E+03   0.732E+01 0.473E+01 0.133E+02
   -.151E+03 -.372E+02 -.489E+03   0.159E+03 0.407E+02 0.508E+03   -.715E+01 -.298E+01 -.171E+02
   0.491E+02 -.199E+02 -.577E+03   -.506E+02 0.198E+02 0.602E+03   0.131E+01 0.108E+00 -.214E+02
   -.446E+02 0.160E+03 -.490E+03   0.464E+02 -.169E+03 0.509E+03   -.172E+01 0.810E+01 -.166E+02
   0.164E+03 -.937E+02 -.512E+03   -.173E+03 0.998E+02 0.532E+03   0.851E+01 -.540E+01 -.172E+02
 -----------------------------------------------------------------------------------------------
   -.180E+00 0.795E+00 -.127E+02   -.199E-12 -.853E-13 0.114E-12   0.240E-01 -.619E+00 0.123E+02
 
 
 POSITION                                       TOTAL-FORCE (eV/Angst)
 -----------------------------------------------------------------------------------
     -2.94771      1.76127     -2.81191         0.025944      0.002654      0.041799
     -1.39464      0.66217     -8.48030         0.015590     -0.014201      0.002094
     -2.85468     -3.41279     -2.79659        -0.020551     -0.080972      0.002252
     -4.30716      2.34140     -6.22333         0.025666     -0.006583     -0.085750
     -0.09553      0.08949     -0.18163         0.008044     -0.032858     -0.049304
     -5.75192     -0.03100     -5.61540        -0.173277      0.043360      0.136945
     -1.45326      2.38594     -5.64812        -0.057493     -0.264898      0.134738
     -2.88350     -0.03485     -5.58832         0.192740      0.155756      0.081282
     -1.46728      2.48046     -0.02552        -0.162719     -0.022976      0.023948
     -1.53780     -2.46199    -11.25299         0.117875     -0.076514     -0.016146
     -2.88351      0.06056     -0.11348        -0.022470      0.156388      0.086435
     -1.44353     -0.78140     -6.48804         0.009739      0.012959      0.090057
     -2.73686      1.49442     -6.60542         0.111082      0.026087      0.174700
     -2.99679     -3.41009     -6.61741        -0.032295      0.045441      0.117802
     -4.30633     -0.83717     -6.58864         0.009873     -0.012336      0.116667
     -1.45569      0.79222     -4.55121        -0.000455      0.032151     -0.179046
     -2.71050      3.28495     -4.53161         0.066497      0.046672     -0.101463
     -3.07346     -1.63436     -4.52704        -0.101620      0.055539     -0.090643
     -4.31930      0.69781     -4.57742        -0.014636     -0.041051     -0.133986
     -1.56583      0.95466     -1.08138        -0.080849      0.006545     -0.013434
     -2.90547      3.26356     -0.93075         0.047189     -0.062149     -0.014855
     -2.87152     -1.62319     -1.05546         0.005892     -0.014511     -0.009322
     -4.26319      0.95269     -1.03560         0.043414     -0.060656      0.027311
     -1.71200     -0.85126    -10.29938        -0.042231      0.057527     -0.104987
     -2.96543      1.59138    -10.30899        -0.013719      0.035480     -0.131523
     -3.01956     -3.18672    -10.31399        -0.070138      0.062023     -0.116981
     -4.28817     -0.88137    -10.32075         0.112910     -0.048876      0.011411
 -----------------------------------------------------------------------------------
    total drift:                               -0.003692      0.061451     -0.054426


--------------------------------------------------------------------------------------------------------



  FREE ENERGIE OF THE ION-ELECTRON SYSTEM (eV)
  ---------------------------------------------------
  free  energy   TOTEN  =      -239.74620763 eV

  energy  without entropy=     -239.74141039  energy(sigma->0) =     -239.74380901
 
 d Force = 0.4615891E-02[-0.285E-03, 0.952E-02]  d Energy = 0.3423627E-02 0.119E-02
 d Force =-0.1145483E+01[-0.123E+01,-0.106E+01]  d Ewald  =-0.3673923E+02 0.356E+02


--------------------------------------------------------------------------------------------------------


    POTLOK:  cpu time      0.1649: real time      0.1653


--------------------------------------------------------------------------------------------------------




--------------------------------------------------------------------------------------------------------


  
 reached required accuracy - stopping structural energy minimisation
     LOOP+:  cpu time   9179.8798: real time   9207.8820
    4ORBIT:  cpu time      0.0000: real time      0.0000



 total charge

# of ion       s       p       d       tot
------------------------------------------
    1        0.049   5.997   0.000   6.046
    2        0.036   5.985   0.000   6.021
    3        0.043   5.991   0.000   6.034
    4        2.035   0.091   0.000   2.126
    5        2.028   0.079   0.000   2.107
    6        0.382   6.502   4.807  11.691
    7        0.393   6.524   4.837  11.754
    8        0.383   6.505   4.810  11.698
    9        0.392   6.525   4.830  11.747
   10        0.378   6.497   4.798  11.673
   11        0.386   6.514   4.813  11.713
   12        1.577   3.487   0.000   5.064
   13        1.579   3.489   0.000   5.068
   14        1.578   3.492   0.000   5.071
   15        1.580   3.451   0.000   5.032
   16        1.572   3.481   0.000   5.053
   17        1.591   3.356   0.000   4.947
   18        1.597   3.306   0.000   4.903
   19        1.577   3.423   0.000   5.000
   20        1.572   3.505   0.000   5.077
   21        1.577   3.472   0.000   5.049
   22        1.574   3.471   0.000   5.045
   23        1.570   3.496   0.000   5.066
   24        1.582   3.425   0.000   5.007
   25        1.578   3.462   0.000   5.039
   26        1.581   3.426   0.000   5.007
   27        1.604   3.276   0.000   4.880
--------------------------------------------------
tot         31.795 112.229  28.895 172.920



 magnetization (x)

# of ion       s       p       d       tot
------------------------------------------
    1        0.004   0.001   0.000   0.004
    2        0.003   0.001   0.000   0.004
    3        0.002   0.000   0.000   0.002
    4        0.003   0.006   0.000   0.009
    5        0.004   0.004   0.000   0.008
    6        0.031   0.044   2.971   3.047
    7        0.031   0.047   2.912   2.991
    8        0.031   0.045   2.958   3.033
    9        0.031   0.048   2.932   3.010
   10        0.031   0.044   2.987   3.061
   11        0.030   0.046   2.940   3.016
   12        0.000  -0.051   0.000  -0.051
   13        0.001  -0.025   0.000  -0.024
   14        0.001  -0.022   0.000  -0.021
   15       -0.000  -0.082   0.000  -0.083
   16        0.000  -0.062   0.000  -0.061
   17       -0.008  -0.486   0.000  -0.494
   18       -0.010  -0.624   0.000  -0.634
   19       -0.003  -0.228   0.000  -0.231
   20        0.001  -0.016   0.000  -0.016
   21        0.000  -0.084   0.000  -0.084
   22       -0.000  -0.071   0.000  -0.071
   23        0.000  -0.042   0.000  -0.041
   24       -0.003  -0.220   0.000  -0.223
   25       -0.000  -0.079   0.000  -0.079
   26       -0.002  -0.206   0.000  -0.208
   27       -0.011  -0.708   0.000  -0.719
--------------------------------------------------
tot          0.165  -2.720  17.700  15.145
 

 total amount of memory used by VASP MPI-rank0   231019. kBytes
=======================================================================

   base      :      30000. kBytes
   nonlr-proj:      49829. kBytes
   fftplans  :       1830. kBytes
   grid      :      18683. kBytes
   one-center:        839. kBytes
   HF        :        259. kBytes
   wavefun   :      53820. kBytes
   fock_wrk  :      75759. kBytes
 
  
  
 General timing and accounting informations for this job:
 ========================================================
  
                  Total CPU time used (sec):   113923.664
                            User time (sec):   113313.597
                          System time (sec):      610.070
                         Elapsed time (sec):   114293.706
  
                   Maximum memory used (kb):      729916.
                   Average memory used (kb):          N/A
  
                          Minor page faults:     70387139
                          Major page faults:            2
                 Voluntary context switches:        35830
