 vasp.6.4.2 20Jul23 (build Nov 27 2023 21:25:52) complex                        
  
 executed on             LinuxIFC date 2024.12.19  17:38:07
 running  128 mpi-ranks, on    2 nodes
 distrk:  each k-point on  128 cores,    1 groups
 distr:  one band on NCORE=   1 cores,  128 groups


--------------------------------------------------------------------------------------------------------


 INCAR:
   ALGO = All
   EDIFF = 0.00135
   ENCUT = 520
   HFSCREEN = 0.2
   IBRION = -1
   ICHARG = 1
   ISIF = 3
   ISMEAR = -5
   ISPIN = 2
   LHFCALC = True
   LMAXMIX = 4
   LORBIT = 11
   LREAL = Auto
   LWAVE = False
   LCHARG = True
   MAGMOM = 3*0.6 8*3.0 16*0.6
   NELM = 100
   NSW = 0
   PREC = Accurate
   PRECFOCK = Fast
   SIGMA = 0.05
   NEDOS = 10000

 POTCAR:    PAW_PBE Na_pv 19Sep2006               
 POTCAR:    PAW_PBE Mn_pv 02Aug2007               
 POTCAR:    PAW_PBE O 08Apr2002                   
 -----------------------------------------------------------------------------
|                                                                             |
|           W    W    AA    RRRRR   N    N  II  N    N   GGGG   !!!           |
|           W    W   A  A   R    R  NN   N  II  NN   N  G    G  !!!           |
|           W    W  A    A  R    R  N N  N  II  N N  N  G       !!!           |
|           W WW W  AAAAAA  RRRRR   N  N N  II  N  N N  G  GGG   !            |
|           WW  WW  A    A  R   R   N   NN  II  N   NN  G    G                |
|           W    W  A    A  R    R  N    N  II  N    N   GGGG   !!!           |
|                                                                             |
|     For optimal performance we recommend to set                             |
|       NCORE = 2 up to number-of-cores-per-socket                            |
|     NCORE specifies how many cores store one orbital (NPAR=cpu/NCORE).      |
|     This setting can greatly improve the performance of VASP for DFT.       |
|     The default, NCORE=1 might be grossly inefficient on modern             |
|     multi-core architectures or massively parallel machines. Do your        |
|     own testing! More info at https://www.vasp.at/wiki/index.php/NCORE      |
|     Unfortunately you need to use the default for GW and RPA                |
|     calculations (for HF NCORE is supported but not extensively tested      |
|     yet).                                                                   |
|                                                                             |
 -----------------------------------------------------------------------------

 POTCAR:    PAW_PBE Na_pv 19Sep2006               
   VRHFIN =Na: p6s1                                                                                 
   LEXCH  = PE                                                                                      
   EATOM  =   766.0439 eV,   56.3026 Ry                                                             
                                                                                                    
   TITEL  = PAW_PBE Na_pv 19Sep2006                                                                 
   LULTRA =        F    use ultrasoft PP ?                                                          
   IUNSCR =        1    unscreen: 0-lin 1-nonlin 2-no                                               
   RPACOR =    1.800    partial core radius                                                         
   POMASS =   22.990; ZVAL   =    7.000    mass and valenz                                          
   RCORE  =    2.200    outmost cutoff radius                                                       
   RWIGS  =    2.200; RWIGS  =    1.164    wigner-seitz radius (au A)                               
   ENMAX  =  259.561; ENMIN  =  194.671 eV                                                          
   ICORE  =        2    local potential                                                             
   LCOR   =        T    correct aug charges                                                         
   LPAW   =        T    paw PP                                                                      
   EAUG   =  368.056                                                                                
   DEXC   =    0.000                                                                                
   RMAX   =    2.245    core radius for proj-oper                                                   
   RAUG   =    1.300    factor for augmentation sphere                                              
   RDEP   =    2.259    radius for radial grids                                                     
   RDEPT  =    1.738    core radius for aug-charge                                                  
                                                                                                    
   Atomic configuration                                                                             
    5 entries                                                                                       
     n  l   j            E        occ.                                                              
     1  0  0.50     -1033.6933   2.0000                                                             
     2  0  0.50       -56.7526   2.0000                                                             
     2  1  1.50       -28.6721   6.0000                                                             
     3  0  0.50        -2.7440   1.0000                                                             
     3  2  1.50        -1.3606   0.0000                                                             
   Description                                                                                      
     l       E           TYP  RCUT    TYP  RCUT                                                     
     1    -28.6720912     23  2.000                                                                 
     1      6.8029130     23  2.000                                                                 
     0     -2.7439560     23  2.200                                                                 
     0     34.0145650     23  2.200                                                                 
     2     -1.3605826     23  2.200                                                                 
  local pseudopotential read in
  partial core-charges read in
  partial kinetic energy density read in
  atomic valenz-charges read in
  non local Contribution for L=           1  read in
    real space projection operators read in
  non local Contribution for L=           1  read in
    real space projection operators read in
  non local Contribution for L=           0  read in
    real space projection operators read in
  non local Contribution for L=           0  read in
    real space projection operators read in
    PAW grid and wavefunctions read in
 
   number of l-projection  operators is LMAX  =           4
   number of lm-projection operators is LMMAX =           8
 
 POTCAR:    PAW_PBE Mn_pv 02Aug2007               
   VRHFIN =Mn: 3p4s3d                                                                               
   LEXCH  = PE                                                                                      
   EATOM  =  2025.2664 eV,  148.8529 Ry                                                             
                                                                                                    
   TITEL  = PAW_PBE Mn_pv 02Aug2007                                                                 
   LULTRA =        F    use ultrasoft PP ?                                                          
   IUNSCR =        1    unscreen: 0-lin 1-nonlin 2-no                                               
   RPACOR =    2.080    partial core radius                                                         
   POMASS =   54.938; ZVAL   =   13.000    mass and valenz                                          
   RCORE  =    2.300    outmost cutoff radius                                                       
   RWIGS  =    2.500; RWIGS  =    1.323    wigner-seitz radius (au A)                               
   ENMAX  =  269.864; ENMIN  =  202.398 eV                                                          
   ICORE  =        3    local potential                                                             
   LCOR   =        T    correct aug charges                                                         
   LPAW   =        T    paw PP                                                                      
   EAUG   =  569.085                                                                                
   DEXC   =    0.000                                                                                
   RMAX   =    2.343    core radius for proj-oper                                                   
   RAUG   =    1.300    factor for augmentation sphere                                              
   RDEP   =    2.338    radius for radial grids                                                     
   RDEPT  =    1.798    core radius for aug-charge                                                  
                                                                                                    
   Atomic configuration                                                                             
    8 entries                                                                                       
     n  l   j            E        occ.                                                              
     1  0  0.50     -6424.8287   2.0000                                                             
     2  0  0.50      -739.1154   2.0000                                                             
     2  1  1.50      -625.3949   6.0000                                                             
     3  0  0.50       -81.6100   2.0000                                                             
     3  1  1.50       -50.4667   6.0000                                                             
     3  2  2.50        -3.3745   6.0000                                                             
     4  0  0.50        -4.1331   1.0000                                                             
     4  3  2.50        -1.3606   0.0000                                                             
   Description                                                                                      
     l       E           TYP  RCUT    TYP  RCUT                                                     
     1    -50.4666628     23  2.000                                                                 
     1     -1.3605826     23  2.000                                                                 
     2     -3.3744729     23  2.300                                                                 
     2     -4.7350555     23  2.300                                                                 
     0     -4.1331431     23  2.300                                                                 
     0      7.6656591     23  2.300                                                                 
     3      9.5240782     23  2.300                                                                 
  local pseudopotential read in
  partial core-charges read in
  partial kinetic energy density read in
  atomic valenz-charges read in
  non local Contribution for L=           1  read in
    real space projection operators read in
  non local Contribution for L=           1  read in
    real space projection operators read in
  non local Contribution for L=           2  read in
    real space projection operators read in
  non local Contribution for L=           2  read in
    real space projection operators read in
  non local Contribution for L=           0  read in
    real space projection operators read in
  non local Contribution for L=           0  read in
    real space projection operators read in
    PAW grid and wavefunctions read in
 
   number of l-projection  operators is LMAX  =           6
   number of lm-projection operators is LMMAX =          18
 
 POTCAR:    PAW_PBE O 08Apr2002                   
   VRHFIN =O: s2p4                                                                                  
   LEXCH  = PE                                                                                      
   EATOM  =   432.3788 eV,   31.7789 Ry                                                             
                                                                                                    
   TITEL  = PAW_PBE O 08Apr2002                                                                     
   LULTRA =        F    use ultrasoft PP ?                                                          
   IUNSCR =        1    unscreen: 0-lin 1-nonlin 2-no                                               
   RPACOR =    1.200    partial core radius                                                         
   POMASS =   16.000; ZVAL   =    6.000    mass and valenz                                          
   RCORE  =    1.520    outmost cutoff radius                                                       
   RWIGS  =    1.550; RWIGS  =    0.820    wigner-seitz radius (au A)                               
   ENMAX  =  400.000; ENMIN  =  300.000 eV                                                          
   ICORE  =        2    local potential                                                             
   LCOR   =        T    correct aug charges                                                         
   LPAW   =        T    paw PP                                                                      
   EAUG   =  605.392                                                                                
   DEXC   =    0.000                                                                                
   RMAX   =    1.553    core radius for proj-oper                                                   
   RAUG   =    1.300    factor for augmentation sphere                                              
   RDEP   =    1.550    radius for radial grids                                                     
   RDEPT  =    1.329    core radius for aug-charge                                                  
                                                                                                    
   Atomic configuration                                                                             
    4 entries                                                                                       
     n  l   j            E        occ.                                                              
     1  0  0.50      -514.6923   2.0000                                                             
     2  0  0.50       -23.9615   2.0000                                                             
     2  1  0.50        -9.0305   4.0000                                                             
     3  2  1.50        -9.5241   0.0000                                                             
   Description                                                                                      
     l       E           TYP  RCUT    TYP  RCUT                                                     
     0    -23.9615318     23  1.200                                                                 
     0     -9.5240782     23  1.200                                                                 
     1     -9.0304911     23  1.520                                                                 
     1      8.1634956     23  1.520                                                                 
     2     -9.5240782      7  1.500                                                                 
  local pseudopotential read in
  partial core-charges read in
  partial kinetic energy density read in
  kinetic energy density of atom read in
  atomic valenz-charges read in
  non local Contribution for L=           0  read in
    real space projection operators read in
  non local Contribution for L=           0  read in
    real space projection operators read in
  non local Contribution for L=           1  read in
    real space projection operators read in
  non local Contribution for L=           1  read in
    real space projection operators read in
    PAW grid and wavefunctions read in
 
   number of l-projection  operators is LMAX  =           4
   number of lm-projection operators is LMMAX =           8
 
 Optimization of the real space projectors (new method)

 maximal supplied QI-value         = 17.01
 optimisation between [QCUT,QGAM] = [ 11.57, 23.30] = [ 37.45,152.03] Ry 
 Optimized for a Real-space Cutoff    1.45 Angstroem

   l    n(q)    QCUT    max X(q) W(low)/X(q) W(high)/X(q)  e(spline) 
   1     10    11.565     4.940    0.87E-04    0.13E-03    0.13E-06
   1     10    11.565     6.253    0.13E-03    0.19E-03    0.20E-06
   0     10    11.565    37.438    0.53E-04    0.73E-05    0.79E-07
   0     10    11.565     9.606    0.27E-04    0.60E-05    0.56E-07
 Optimization of the real space projectors (new method)

 maximal supplied QI-value         = 16.25
 optimisation between [QCUT,QGAM] = [ 11.54, 23.24] = [ 37.28,151.24] Ry 
 Optimized for a Real-space Cutoff    1.45 Angstroem

   l    n(q)    QCUT    max X(q) W(low)/X(q) W(high)/X(q)  e(spline) 
   1     10    11.539     3.658    0.56E-04    0.12E-03    0.13E-06
   1     10    11.539     5.612    0.11E-03    0.23E-03    0.24E-06
   2      9    11.539    55.373    0.45E-04    0.92E-04    0.22E-06
   2      9    11.539    50.863    0.47E-04    0.95E-04    0.22E-06
   0     10    11.539    79.536    0.46E-04    0.27E-04    0.11E-06
   0     10    11.539    38.668    0.38E-04    0.25E-04    0.10E-06
 Optimization of the real space projectors (new method)

 maximal supplied QI-value         = 24.76
 optimisation between [QCUT,QGAM] = [ 11.64, 23.27] = [ 37.91,151.63] Ry 
 Optimized for a Real-space Cutoff    1.14 Angstroem

   l    n(q)    QCUT    max X(q) W(low)/X(q) W(high)/X(q)  e(spline) 
   0      8    11.635    20.381    0.10E-03    0.33E-03    0.24E-06
   0      8    11.635    15.268    0.11E-03    0.35E-03    0.26E-06
   1      7    11.635     5.964    0.24E-03    0.31E-03    0.30E-06
   1      7    11.635     5.382    0.22E-03    0.25E-03    0.26E-06
  PAW_PBE Na_pv 19Sep2006               :
 energy of atom  1       EATOM= -766.0439
 kinetic energy error for atom=    0.0019 (will be added to EATOM!!)
  PAW_PBE Mn_pv 02Aug2007               :
 energy of atom  2       EATOM=-2025.2664
 kinetic energy error for atom=    0.0058 (will be added to EATOM!!)
  PAW_PBE O 08Apr2002                   :
 energy of atom  3       EATOM= -432.3788
 kinetic energy error for atom=    0.0208 (will be added to EATOM!!)
 
 
 POSCAR: Na6 Mn8 O16
  positions in direct lattice
  velocities in cartesian coordinates
 exchange correlation table for  LEXCH =        8
   RHO(1)=    0.500       N(1)  =     2000
   RHO(2)=  100.500       N(2)  =     4000
 


--------------------------------------------------------------------------------------------------------


 ion  position               nearest neighbor table
   1  0.318  0.667  0.248-  21 2.34  19 2.38
   2  0.176  0.324  0.752-  26 2.38
   3  0.822  0.161  0.248-  20 2.30
   4  0.995  0.993  0.495-  17 1.89  14 1.90  15 1.95  16 2.00  12 2.13  19 2.17   5 2.84   5 2.86
                             6 2.91   6 2.93   7 2.96   7 2.97
   5  0.993  0.494  0.499-  14 1.89  15 1.89  17 1.90  16 1.93  13 1.93  18 1.93   4 2.84   4 2.86
                             7 2.91   7 2.94   6 2.95   6 2.98
   6  0.495  0.996  0.504-  12 1.86  19 1.89  14 1.98  13 1.99  17 2.00  18 2.00   7 2.84   7 2.86
                             4 2.91   4 2.93   5 2.95   5 2.98
   7  0.496  0.495  0.494-  12 1.86  15 1.89  19 1.91  13 1.92  18 1.92  16 1.97   6 2.84   6 2.86
                             5 2.91   5 2.94   4 2.96   4 2.97
   8  0.007  0.003  0.007-  27 1.86  24 1.90  26 1.90  21 1.90  20 1.94  23 1.94   9 2.83   9 2.87
                            10 2.92  10 2.93  11 2.96  11 2.96
   9  0.007  0.507  0.002-  27 1.86  26 1.90  21 1.91  25 1.91  20 1.92  22 1.92   8 2.83   8 2.87
                            11 2.91  11 2.93  10 2.96  10 2.97
  10  0.507  0.005  0.995-  24 1.89  23 1.92  25 1.93  22 1.94  26 2.09  21 2.14  11 2.84  11 2.86
                             8 2.92   8 2.93   9 2.96   9 2.97
  11  0.507  0.503  0.004-  25 1.91  22 1.91  24 1.95  23 1.99  27 2.14  20 2.19  10 2.84  10 2.86
                             9 2.91   9 2.93   8 2.96   8 2.96
  12  0.358  0.186  0.585-   7 1.86   6 1.86   4 2.13
  13  0.315  0.643  0.584-   7 1.92   5 1.93   6 1.99
  14  0.838  0.166  0.582-   5 1.89   4 1.90   6 1.98
  15  0.812  0.651  0.577-   5 1.89   7 1.89   4 1.95
  16  0.166  0.340  0.407-   5 1.93   7 1.97   4 2.00
  17  0.162  0.824  0.415-   4 1.89   5 1.90   6 2.00
  18  0.674  0.335  0.410-   7 1.92   5 1.93   6 2.00
  19  0.625  0.819  0.405-   6 1.89   7 1.91   4 2.17   1 2.38
  20  0.137  0.323  0.101-   9 1.92   8 1.94  11 2.19   3 2.30
  21  0.153  0.822  0.095-   8 1.90   9 1.91  10 2.14   1 2.34
  22  0.677  0.334  0.084-  11 1.91   9 1.92  10 1.94
  23  0.674  0.848  0.089-  10 1.92   8 1.94  11 1.99
  24  0.326  0.166  0.921-  10 1.89   8 1.90  11 1.95
  25  0.332  0.662  0.920-  11 1.91   9 1.91  10 1.93
  26  0.873  0.187  0.913-   8 1.90   9 1.90  10 2.09   2 2.38
  27  0.877  0.696  0.916-   8 1.86   9 1.86  11 2.14
 
  LATTYP: Found a triclinic cell.
 ALAT       =     5.9264219980
 B/A-ratio  =     0.9619304360
 C/A-ratio  =     1.9012588477
 COS(alpha) =     0.0043207661
 COS(beta)  =     0.0107811636
 COS(gamma) =     0.4954967841
  
  Lattice vectors:
  
 A1 = (  -5.9257531355,  -0.0828298859,  -0.0326601635)
 A2 = (  -2.8936358238,   4.9118114318,  -0.0128751707)
 A3 = (  -0.0592795045,  -0.0079524603, -11.2675035157)


Analysis of symmetry for initial positions (statically):
=====================================================================
 Subroutine PRICEL returns:
 Original cell was already a primitive cell.
 

 Routine SETGRP: Setting up the symmetry group for a 
 triclinic supercell.


 Subroutine GETGRP returns: Found  1 space group operations
 (whereof  1 operations were pure point group operations)
 out of a pool of  2 trial point group operations.


The static configuration has the point symmetry C_1 .


Analysis of symmetry for dynamics (positions and initial velocities):
=====================================================================
 Subroutine PRICEL returns:
 Original cell was already a primitive cell.
 

 Routine SETGRP: Setting up the symmetry group for a 
 triclinic supercell.


 Subroutine GETGRP returns: Found  1 space group operations
 (whereof  1 operations were pure point group operations)
 out of a pool of  2 trial point group operations.


The dynamic configuration has the point symmetry C_1 .


Analysis of structural, dynamic, and magnetic symmetry:
=====================================================================
 Subroutine PRICEL returns:
 Original cell was already a primitive cell.
 

 Routine SETGRP: Setting up the symmetry group for a 
 triclinic supercell.


 Subroutine GETGRP returns: Found  1 space group operations
 (whereof  1 operations were pure point group operations)
 out of a pool of  2 trial point group operations.


The overall configuration has the point symmetry C_1 .


 Subroutine INISYM returns: Found  1 space group operations
 (whereof  1 operations are pure point group operations),
 and found     1 'primitive' translations


----------------------------------------------------------------------------------------

                                     Primitive cell                                     

  volume of cell :     330.6449

  direct lattice vectors                    reciprocal lattice vectors
    -3.032117312 -4.994641318 -0.019784993    -0.167381860 -0.098605152  0.000950208
    -2.893635824  4.911811432 -0.012875171    -0.170203698  0.103322996  0.000822535
    -0.059279504 -0.007952460-11.267503516     0.000488400  0.000055079 -0.088753413

  length of vectors
     5.842993131  5.700805697 11.267662259     0.194269313  0.199112071  0.088754774

  position of ions in fractional coordinates (direct lattice)
     0.317953769  0.666833215  0.247954180
     0.176067033  0.324091647  0.752380418
     0.821930412  0.161486658  0.247541512
     0.995353188  0.993185842  0.495378341
     0.992581323  0.494294740  0.498522434
     0.494771591  0.996147931  0.503584712
     0.495502976  0.494827405  0.493775620
     0.007261464  0.003213308  0.006840511
     0.006769208  0.506667184  0.002456573
     0.507488590  0.004938917  0.994806553
     0.506969961  0.503243305  0.003838653
     0.358333626  0.185519399  0.584930484
     0.315021727  0.642565780  0.583908759
     0.837815236  0.166172044  0.581579912
     0.812464995  0.650917438  0.577262254
     0.166215647  0.339607709  0.407050167
     0.161850123  0.824245319  0.414541584
     0.673717807  0.335155227  0.409586988
     0.624526415  0.818834218  0.404695862
     0.136664198  0.323074531  0.101398041
     0.152563748  0.821947418  0.095427990
     0.677396652  0.334154191  0.083718983
     0.673542398  0.848007854  0.089027475
     0.325798418  0.165732134  0.920972538
     0.331943925  0.661568916  0.919744386
     0.872681391  0.187079718  0.913057919
     0.876814179  0.696487953  0.916017152

  ion indices of the primitive-cell ions
   primitive index   ion index
                 1           1
                 2           2
                 3           3
                 4           4
                 5           5
                 6           6
                 7           7
                 8           8
                 9           9
                10          10
                11          11
                12          12
                13          13
                14          14
                15          15
                16          16
                17          17
                18          18
                19          19
                20          20
                21          21
                22          22
                23          23
                24          24
                25          25
                26          26
                27          27

----------------------------------------------------------------------------------------

 
 
 KPOINTS: pymatgen with grid density = 1046 / numb

Automatic generation of k-mesh.
 Grid dimensions read from file:
 generate k-points for:    4    4    2

 Generating k-lattice:

  Cartesian coordinates                     Fractional coordinates (reciprocal lattice)
    -0.041845465 -0.024651288  0.000237552     0.250000000 -0.000000000  0.000000000
    -0.042550924  0.025830749  0.000205634    -0.000000000  0.250000000 -0.000000000
     0.000244200  0.000027539 -0.044376706    -0.000000000 -0.000000000  0.500000000

  Length of vectors
     0.048567328  0.049778018  0.044377387

  Shift w.r.t. Gamma in fractional coordinates (k-lattice)
     0.000000000  0.000000000  0.000000000

 TETIRR: Found     96 inequivalent tetrahedra from      192
 
 Subroutine IBZKPT returns following result:
 ===========================================
 
 Found     20 irreducible k-points:
 
 Following reciprocal coordinates:
            Coordinates               Weight
  0.000000  0.000000  0.000000      1.000000
  0.250000 -0.000000 -0.000000      2.000000
  0.500000 -0.000000 -0.000000      1.000000
  0.000000  0.250000  0.000000      2.000000
  0.250000  0.250000  0.000000      2.000000
  0.500000  0.250000 -0.000000      2.000000
 -0.250000  0.250000 -0.000000      2.000000
  0.000000  0.500000  0.000000      1.000000
  0.250000  0.500000  0.000000      2.000000
  0.500000  0.500000  0.000000      1.000000
 -0.000000  0.000000  0.500000      1.000000
  0.250000 -0.000000  0.500000      2.000000
  0.500000 -0.000000  0.500000      1.000000
  0.000000  0.250000  0.500000      2.000000
  0.250000  0.250000  0.500000      2.000000
  0.500000  0.250000  0.500000      2.000000
 -0.250000  0.250000  0.500000      2.000000
  0.000000  0.500000  0.500000      1.000000
  0.250000  0.500000  0.500000      2.000000
  0.500000  0.500000  0.500000      1.000000
 
 Following cartesian coordinates:
            Coordinates               Weight
  0.000000  0.000000  0.000000      1.000000
 -0.041845 -0.024651  0.000238      2.000000
 -0.083691 -0.049303  0.000475      1.000000
 -0.042551  0.025831  0.000206      2.000000
 -0.084396  0.001179  0.000443      2.000000
 -0.126242 -0.023472  0.000681      2.000000
 -0.000705  0.050482 -0.000032      2.000000
 -0.085102  0.051661  0.000411      1.000000
 -0.126947  0.027010  0.000649      2.000000
 -0.168793  0.002359  0.000886      1.000000
  0.000244  0.000028 -0.044377      1.000000
 -0.041601 -0.024624 -0.044139      2.000000
 -0.083447 -0.049275 -0.043902      1.000000
 -0.042307  0.025858 -0.044171      2.000000
 -0.084152  0.001207 -0.043934      2.000000
 -0.125998 -0.023444 -0.043696      2.000000
 -0.000461  0.050510 -0.044409      2.000000
 -0.084858  0.051689 -0.043965      1.000000
 -0.126703  0.027038 -0.043728      2.000000
 -0.168549  0.002386 -0.043490      1.000000
 
 
 Subroutine IBZKPT_HF returns following result:
 ==============================================
 
 Found     32 k-points in 1st BZ
 the following     32 k-points will be used (e.g. in the exchange kernel)
 Following reciprocal coordinates:   # in IRBZ
  0.000000  0.000000  0.000000    0.03125000   1 t-inv F
  0.250000 -0.000000 -0.000000    0.03125000   2 t-inv F
  0.500000 -0.000000 -0.000000    0.03125000   3 t-inv F
  0.000000  0.250000  0.000000    0.03125000   4 t-inv F
  0.250000  0.250000  0.000000    0.03125000   5 t-inv F
  0.500000  0.250000 -0.000000    0.03125000   6 t-inv F
 -0.250000  0.250000 -0.000000    0.03125000   7 t-inv F
  0.000000  0.500000  0.000000    0.03125000   8 t-inv F
  0.250000  0.500000  0.000000    0.03125000   9 t-inv F
  0.500000  0.500000  0.000000    0.03125000  10 t-inv F
 -0.000000  0.000000  0.500000    0.03125000  11 t-inv F
  0.250000 -0.000000  0.500000    0.03125000  12 t-inv F
  0.500000 -0.000000  0.500000    0.03125000  13 t-inv F
  0.000000  0.250000  0.500000    0.03125000  14 t-inv F
  0.250000  0.250000  0.500000    0.03125000  15 t-inv F
  0.500000  0.250000  0.500000    0.03125000  16 t-inv F
 -0.250000  0.250000  0.500000    0.03125000  17 t-inv F
  0.000000  0.500000  0.500000    0.03125000  18 t-inv F
  0.250000  0.500000  0.500000    0.03125000  19 t-inv F
  0.500000  0.500000  0.500000    0.03125000  20 t-inv F
 -0.250000  0.000000  0.000000    0.03125000   2 t-inv T
 -0.000000 -0.250000 -0.000000    0.03125000   4 t-inv T
 -0.250000 -0.250000 -0.000000    0.03125000   5 t-inv T
 -0.500000 -0.250000  0.000000    0.03125000   6 t-inv T
  0.250000 -0.250000  0.000000    0.03125000   7 t-inv T
 -0.250000 -0.500000 -0.000000    0.03125000   9 t-inv T
 -0.250000  0.000000 -0.500000    0.03125000  12 t-inv T
 -0.000000 -0.250000 -0.500000    0.03125000  14 t-inv T
 -0.250000 -0.250000 -0.500000    0.03125000  15 t-inv T
 -0.500000 -0.250000 -0.500000    0.03125000  16 t-inv T
  0.250000 -0.250000 -0.500000    0.03125000  17 t-inv T
 -0.250000 -0.500000 -0.500000    0.03125000  19 t-inv T


--------------------------------------------------------------------------------------------------------




 Dimension of arrays:
   k-points           NKPTS =     20   k-points in BZ     NKDIM =     32   number of bands    NBANDS=    256
   number of dos      NEDOS =  10000   number of ions     NIONS =     27
   non local maximal  LDIM  =      6   non local SUM 2l+1 LMDIM =     18
   total plane-waves  NPLWV = 169344
   max r-space proj   IRMAX =   6533   max aug-charges    IRDMAX=  15738
   dimension x,y,z NGX =    48 NGY =   42 NGZ =   84
   dimension x,y,z NGXF=    96 NGYF=   84 NGZF=  168
   support grid    NGXF=    96 NGYF=   84 NGZF=  168
   ions per type =               3   8  16
   NGX,Y,Z   is equivalent  to a cutoff of  13.66, 12.25, 12.39 a.u.
   NGXF,Y,Z  is equivalent  to a cutoff of  27.31, 24.50, 24.79 a.u.

 SYSTEM =  unknown system                          
 POSCAR =  Na6 Mn8 O16                             

 Startparameter for this run:
   NWRITE =      2    write-flag & timer
   PREC   = accura    normal or accurate (medium, high low for compatibility)
   ISTART =      1    job   : 0-new  1-cont  2-samecut
   ICHARG =      1    charge: 1-file 2-atom 10-const
   ISPIN  =      2    spin polarized calculation?
   LNONCOLLINEAR =      F non collinear calculations
   LSORBIT =      F    spin-orbit coupling
   INIWAV =      1    electr: 0-lowe 1-rand  2-diag
   LASPH  =      F    aspherical Exc in radial PAW
 Electronic Relaxation 1
   ENCUT  =  520.0 eV  38.22 Ry    6.18 a.u.  10.86 10.60 20.95*2*pi/ulx,y,z
   ENINI  =  520.0     initial cutoff
   ENAUG  =  605.4 eV  augmentation charge cutoff
   NELM   =    100;   NELMIN=  2; NELMDL=  0     # of ELM steps 
   EDIFF  = 0.1E-02   stopping-criterion for ELM
   LREAL  =      T    real-space projection
   NLSPLINE    = F    spline interpolate recip. space projectors
   LCOMPAT=      F    compatible to vasp.4.4
   GGA_COMPAT  = T    GGA compatible to vasp.4.4-vasp.4.6
   LMAXPAW     = -100 max onsite density
   LMAXMIX     =    4 max onsite mixed and CHGCAR
   VOSKOWN=      0    Vosko Wilk Nusair interpolation
   ROPT   =   -0.00025  -0.00025  -0.00025
 Ionic relaxation
   EDIFFG = 0.1E-01   stopping-criterion for IOM
   NSW    =      0    number of steps for IOM
   NBLOCK =      1;   KBLOCK =      1    inner block; outer block 
   IBRION =     -1    ionic relax: 0-MD 1-quasi-New 2-CG
   NFREE  =      0    steps in history (QN), initial steepest desc. (CG)
   ISIF   =      3    stress and relaxation
   IWAVPR =     10    prediction:  0-non 1-charg 2-wave 3-comb
   ISYM   =      3    0-nonsym 1-usesym 2-fastsym
   LCORR  =      T    Harris-Foulkes like correction to forces

   POTIM  = 0.5000    time-step for ionic-motion
   TEIN   =    0.0    initial temperature
   TEBEG  =    0.0;   TEEND  =   0.0 temperature during run
   SMASS  =  -3.00    Nose mass-parameter (am)
   estimated Nose-frequenzy (Omega)   =  0.10E-29 period in steps = 0.13E+47 mass=  -0.780E-27a.u.
   SCALEE = 1.0000    scale energy and forces
   NPACO  =    256;   APACO  = 10.0  distance and # of slots for P.C.
   PSTRESS=    0.0 pullay stress

  Mass of Ions in am
   POMASS =  22.99 54.94 16.00
  Ionic Valenz
   ZVAL   =   7.00 13.00  6.00
  Atomic Wigner-Seitz radii
   RWIGS  =  -1.00 -1.00 -1.00
  virtual crystal weights 
   VCA    =   1.00  1.00  1.00
   NELECT =     221.0000    total number of electrons
   NUPDOWN=      -1.0000    fix difference up-down

 DOS related values:
   EMIN   =  10.00;   EMAX   =-10.00  energy-range for DOS
   EFERMI =   0.00;   METHOD = LEGACY      
   ISMEAR =    -5;   SIGMA  =   0.05  broadening in eV -4-tet -1-fermi 0-gaus

 Electronic relaxation 2 (details)
   IALGO  =     58    algorithm
   LDIAG  =      T    sub-space diagonalisation (order eigenvalues)
   LSUBROT=      F    optimize rotation matrix (better conditioning)
   TURBO    =      0    0=normal 1=particle mesh
   IRESTART =      0    0=no restart 2=restart with 2 vectors
   NREBOOT  =      0    no. of reboots
   NMIN     =      0    reboot dimension
   EREF     =   0.00    reference energy to select bands
   IMIX   =      4    mixing-type and parameters
     AMIX     =   0.40;   BMIX     =  1.00
     AMIX_MAG =   1.60;   BMIX_MAG =  1.00
     AMIN     =   0.10
     WC   =   100.;   INIMIX=   1;  MIXPRE=   1;  MAXMIX= -45

 Intra band minimization:
   WEIMIN = 0.0000     energy-eigenvalue tresh-hold
   EBREAK =  0.13E-05  absolut break condition
   DEPER  =   0.30     relativ break condition  

   TIME   =   0.40     timestep for ELM

  volume/ion in A,a.u.               =      12.25        82.64
  Fermi-wavevector in a.u.,A,eV,Ry     =   1.431369  2.704895 27.875857  2.048818
  Thomas-Fermi vector in A             =   2.551113
 
 Write flags
   LWAVE        =      F    write WAVECAR
   LDOWNSAMPLE  =      F    k-point downsampling of WAVECAR
   LCHARG       =      T    write CHGCAR
   LVTOT        =      F    write LOCPOT, total local potential
   LVHAR        =      F    write LOCPOT, Hartree potential only
   LELF         =      F    write electronic localiz. function (ELF)
   LORBIT       =     11    0 simple, 1 ext, 2 COOP (PROOUT), +10 PAW based schemes


 Dipole corrections
   LMONO  =      F    monopole corrections only (constant potential shift)
   LDIPOL =      F    correct potential (dipole corrections)
   IDIPOL =      0    1-x, 2-y, 3-z, 4-all directions 
   EPSILON=  1.0000000 bulk dielectric constant

 Exchange correlation treatment:
   GGA     =    --    GGA type
   LEXCH   =     8    internal setting for exchange type
   LIBXC   =     F    Libxc                    
   VOSKOWN =     0    Vosko Wilk Nusair interpolation
   EXXOEP  =     0    0=HF, 1=EXX-LHF (local Hartree Fock) 2=EXX OEP
   LHFCALC =     T    Hartree Fock is set to
   LSYMGRAD=     F    symmetrize gradient (conserves proper symmetry)
   PRECFOCK=fast      Normal, Fast or Accurate (Low or Medium for compatibility)
   LRHFCALC=     F    long range Hartree Fock
   LRSCOR  =     F    long range correlation only (use DFT for short range part)
   LTHOMAS =     F    Thomas Fermi screening in HF
   LMODELHF=     F    short range full HF, long range fraction AEXX
   FOCKCORR=     1    mode to apply convergence corrections
   LFOCKACE=     T    use Adeptively-Compressed-Exchange operator
   ENCUT4O =  -1.0   cutoff for four orbital integrals eV
   LMAXFOCK=     4    L truncation for augmentation on plane wave grid
   LMAXFOCKAE=  -1    L truncation for all-electron charge restoration on plane wave grid
   NMAXFOCKAE=   1    number of basis functions for all-electron charge restoration
   LFOCKAEDFT=     F  apply the AE augmentation even for DFT
   NKREDX  =     1    reduce k-point grid by
   NKREDY  =     1    reduce k-point grid by
   NKREDZ  =     1    reduce k-point grid by
   SHIFTRED=     F    shift reduced grid of Gamma
   HFKIDENT=     F    idential grid for each k-point
   ODDONLY =     F    use only odd q-grid points
   EVENONLY=     F    use only even q-grid points
   HFALPHA =   -1.0000 decay constant for conv. correction
   MCALPHA =    0.0000 extent of test-charge in conv. correction in multipole expansion
   AEXX    =    0.2500 exact exchange contribution
   HFSCREEN=    0.2000 screening length (either q_TF or 0.3 A-1)
   HFSCREENC=   0.2000 screening length for correlation (either q_TF or 0.3 A-1)
   HFRCUT  =    0.0000 spherical cutoff for potential kernel
   ALDAX   =    0.7500 LDA exchange part
   AGGAX   =    0.7500 GGA exchange part
   ALDAC   =    1.0000 LDA correlation
   AGGAC   =    1.0000 GGA correlation
   ENCUTFOCK=  -1.0 apply spherical cutoff to Coloumb kernel
   NBANDSGWLOW=     1    first orbital included in HF term
   NBLOCK_FOCK=    64    blocking factor in FOCK_ACC

 Linear response parameters
   LEPSILON=     F    determine dielectric tensor
   LRPA    =     F    only Hartree local field effects (RPA)
   LNABLA  =     F    use nabla operator in PAW spheres
   LVEL    =     F    velocity operator in full k-point grid
   CSHIFT  =0.1000    complex shift for real part using Kramers Kronig
   OMEGAMAX=  -1.0    maximum frequency
   DEG_THRESHOLD= 0.2000000E-02 threshold for treating states as degnerate
   RTIME   =   -0.100 relaxation time in fs
  (WPLASMAI=    0.000 imaginary part of plasma frequency in eV, 0.658/RTIME)
   DFIELD  = 0.0000000 0.0000000 0.0000000 field for delta impulse in time
 
  Optional k-point grid parameters
   LKPOINTS_OPT  =     F    use optional k-point grid
   KPOINTS_OPT_MODE=     1    mode for optional k-point grid
 
 Orbital magnetization related:
   ORBITALMAG=     F  switch on orbital magnetization
   LCHIMAG   =     F  perturbation theory with respect to B field
   DQ        =  0.001000  dq finite difference perturbation B field
   LLRAUG    =     F  two centre corrections for induced B field
   LBONE     =     F  B-component reconstruction in AE one-centre
   LVGVCALC  =     T  calculate vGv susceptibility
   LVGVAPPL  =     F  apply vGv susceptibility instead of pGv for G=0

 Random number generation:
   RANDOM_GENERATOR = DEFAULT
   PCG_SEED         = not used


--------------------------------------------------------------------------------------------------------


 Static calculation
 charge density and potential will be updated during run
 spin polarized calculation
 Conjugate gradient for all bands (Freysoldt, et al. PRB 79, 241103 (2009))
 preconditioned conjugated gradient                                        
 perform sub-space diagonalisation
    before iterative eigenvector-optimisation
 modified Broyden-mixing scheme, WC =      100.0
 initial mixing is a Kerker type mixing with AMIX =  0.4000 and BMIX =      1.0000
 Hartree-type preconditioning will be used
 using additional bands          145
 real space projection scheme for non local part
 use partial core corrections
 no Harris-corrections to forces 
 use gradient corrections 
 use of overlap-Matrix (Vanderbilt PP)
 Fermi weights with tetrahedron method with Bloechl corrections


--------------------------------------------------------------------------------------------------------


  energy-cutoff  :      520.00
  volume of cell :      330.64
      direct lattice vectors                 reciprocal lattice vectors
    -3.032117312 -4.994641318 -0.019784993    -0.167381860 -0.098605152  0.000950208
    -2.893635824  4.911811432 -0.012875171    -0.170203698  0.103322996  0.000822535
    -0.059279504 -0.007952460-11.267503516     0.000488400  0.000055079 -0.088753413

  length of vectors
     5.842993131  5.700805697 11.267662259     0.194269313  0.199112071  0.088754774


 
 old parameters found on file WAVECAR:
  energy-cutoff  :      520.00
  volume of cell :      330.64
      direct lattice vectors                 reciprocal lattice vectors
    -3.032117312 -4.994641318 -0.019784993    -0.167381860 -0.098605152  0.000950208
    -2.893635824  4.911811432 -0.012875171    -0.170203698  0.103322996  0.000822535
    -0.059279504 -0.007952460-11.267503516     0.000488400  0.000055079 -0.088753413

  length of vectors

 
 k-points in units of 2pi/SCALE and weight: pymatgen with grid density = 1046 / numb
   0.00000000  0.00000000  0.00000000       0.031
  -0.04184546 -0.02465129  0.00023755       0.062
  -0.08369093 -0.04930258  0.00047510       0.031
  -0.04255092  0.02583075  0.00020563       0.062
  -0.08439639  0.00117946  0.00044319       0.062
  -0.12624185 -0.02347183  0.00068074       0.062
  -0.00070546  0.05048204 -0.00003192       0.062
  -0.08510185  0.05166150  0.00041127       0.031
  -0.12694731  0.02701021  0.00064882       0.062
  -0.16879278  0.00235892  0.00088637       0.031
   0.00024420  0.00002754 -0.04437671       0.031
  -0.04160126 -0.02462375 -0.04413915       0.062
  -0.08344673 -0.04927504 -0.04390160       0.031
  -0.04230672  0.02585829 -0.04417107       0.062
  -0.08415219  0.00120700 -0.04393352       0.062
  -0.12599765 -0.02344429 -0.04369597       0.062
  -0.00046126  0.05050958 -0.04440862       0.062
  -0.08485765  0.05168904 -0.04396544       0.031
  -0.12670311  0.02703775 -0.04372789       0.062
  -0.16854858  0.00238646 -0.04349033       0.031
 
 k-points in reciprocal lattice and weights: pymatgen with grid density = 1046 / numb
   0.00000000  0.00000000  0.00000000       0.031
   0.25000000 -0.00000000 -0.00000000       0.062
   0.50000000 -0.00000000 -0.00000000       0.031
   0.00000000  0.25000000  0.00000000       0.062
   0.25000000  0.25000000  0.00000000       0.062
   0.50000000  0.25000000 -0.00000000       0.062
  -0.25000000  0.25000000 -0.00000000       0.062
   0.00000000  0.50000000  0.00000000       0.031
   0.25000000  0.50000000  0.00000000       0.062
   0.50000000  0.50000000  0.00000000       0.031
  -0.00000000  0.00000000  0.50000000       0.031
   0.25000000 -0.00000000  0.50000000       0.062
   0.50000000 -0.00000000  0.50000000       0.031
   0.00000000  0.25000000  0.50000000       0.062
   0.25000000  0.25000000  0.50000000       0.062
   0.50000000  0.25000000  0.50000000       0.062
  -0.25000000  0.25000000  0.50000000       0.062
   0.00000000  0.50000000  0.50000000       0.031
   0.25000000  0.50000000  0.50000000       0.062
   0.50000000  0.50000000  0.50000000       0.031
 
 position of ions in fractional coordinates (direct lattice) 
   0.31795377  0.66683321  0.24795418
   0.17606703  0.32409165  0.75238042
   0.82193041  0.16148666  0.24754151
   0.99535319  0.99318584  0.49537834
   0.99258132  0.49429474  0.49852243
   0.49477159  0.99614793  0.50358471
   0.49550298  0.49482741  0.49377562
   0.00726146  0.00321331  0.00684051
   0.00676921  0.50666718  0.00245657
   0.50748859  0.00493892  0.99480655
   0.50696996  0.50324331  0.00383865
   0.35833363  0.18551940  0.58493048
   0.31502173  0.64256578  0.58390876
   0.83781524  0.16617204  0.58157991
   0.81246500  0.65091744  0.57726225
   0.16621565  0.33960771  0.40705017
   0.16185012  0.82424532  0.41454158
   0.67371781  0.33515523  0.40958699
   0.62452641  0.81883422  0.40469586
   0.13666420  0.32307453  0.10139804
   0.15256375  0.82194742  0.09542799
   0.67739665  0.33415419  0.08371898
   0.67354240  0.84800785  0.08902748
   0.32579842  0.16573213  0.92097254
   0.33194393  0.66156892  0.91974439
   0.87268139  0.18707972  0.91305792
   0.87681418  0.69648795  0.91601715
 
 position of ions in cartesian coordinates  (Angst):
  -2.90834421  1.68532213 -2.80870090
  -1.51625984  0.70650211 -8.48510522
  -2.97414715 -3.31402415 -2.80751592
  -5.92131154 -0.09703006 -5.61415769
  -4.46948414 -2.53366961 -5.64310562
  -4.41254710  2.41767943 -5.69675714
  -2.96354423 -0.04828746 -5.57979305
  -0.03172126 -0.02053964 -0.07726052
  -1.48678097  2.45482436 -0.03433680
  -1.61202801 -2.51837561-11.21909058
  -2.99362281 -0.06032742 -0.05976178
  -1.65800956 -0.88316327 -6.60018451
  -2.84914801  1.57809790 -6.59369985
  -3.05567123 -3.37300584 -6.57166937
  -4.38122701 -0.86537818 -6.52875976
  -1.51081611  0.83466444 -4.59410026
  -2.90038816  3.23685764 -4.68466326
  -3.03688871 -1.72201674 -4.63266751
  -4.28703555  0.89945551 -4.58281093
  -1.35525274  0.90348616 -1.14936632
  -2.84666460  3.27449064 -1.08883640
  -3.02582947 -1.74271670 -0.96100852
  -4.50136298  0.80044399 -1.02736167
  -1.52202226 -0.82052525-10.38564106
  -2.97535443  1.58424669-10.37830842
  -3.24153855 -3.44709129-10.30755799
  -4.72828699 -0.96563943-10.34754164
 


--------------------------------------------------------------------------------------------------------


 k-point   1 :   0.0000 0.0000 0.0000  plane waves:    8891
 k-point   2 :   0.2500-0.0000-0.0000  plane waves:    8911
 k-point   3 :   0.5000-0.0000-0.0000  plane waves:    8924
 k-point   4 :   0.0000 0.2500 0.0000  plane waves:    8906
 k-point   5 :   0.2500 0.2500 0.0000  plane waves:    8917
 k-point   6 :   0.5000 0.2500-0.0000  plane waves:    8899
 k-point   7 :  -0.2500 0.2500-0.0000  plane waves:    8888
 k-point   8 :   0.0000 0.5000 0.0000  plane waves:    8888
 k-point   9 :   0.2500 0.5000 0.0000  plane waves:    8887
 k-point  10 :   0.5000 0.5000 0.0000  plane waves:    8882
 k-point  11 :  -0.0000 0.0000 0.5000  plane waves:    8900
 k-point  12 :   0.2500-0.0000 0.5000  plane waves:    8926
 k-point  13 :   0.5000-0.0000 0.5000  plane waves:    8924
 k-point  14 :   0.0000 0.2500 0.5000  plane waves:    8906
 k-point  15 :   0.2500 0.2500 0.5000  plane waves:    8920
 k-point  16 :   0.5000 0.2500 0.5000  plane waves:    8919
 k-point  17 :  -0.2500 0.2500 0.5000  plane waves:    8877
 k-point  18 :   0.0000 0.5000 0.5000  plane waves:    8906
 k-point  19 :   0.2500 0.5000 0.5000  plane waves:    8897
 k-point  20 :   0.5000 0.5000 0.5000  plane waves:    8890

 maximum and minimum number of plane-waves per node :      8926     8877

 maximum number of plane-waves:      8926
 maximum index in each direction: 
   IXMAX=   11   IYMAX=   10   IZMAX=   20
   IXMIN=  -11   IYMIN=  -11   IZMIN=  -21


 serial   3D FFT for wavefunctions
 parallel 3D FFT for charge:
    minimum data exchange during FFTs selected (reduces bandwidth)


 FFT grid for exact exchange (Hartree Fock) 
  NGX = 24; NGY = 24; NGZ = 48

 
 Radii for the augmentation spheres in the non-local exchange
 for species   1 augmentation radius   1.249 (default was   0.925)
       energy cutoff for augmentation   2080.0
 for species   2 augmentation radius   1.293 (default was   0.958)
       energy cutoff for augmentation   2080.0
 for species   3 augmentation radius   0.974 (default was   0.722)
       energy cutoff for augmentation   2080.0
 Maximum index for augmentation-charges in exchange          764
  SETUP_FOCK is finished

 total amount of memory used by VASP MPI-rank0   101006. kBytes
=======================================================================

   base      :      30000. kBytes
   nonlr-proj:      18038. kBytes
   fftplans  :       1190. kBytes
   grid      :      14865. kBytes
   one-center:        839. kBytes
   HF        :        194. kBytes
   wavefun   :      35880. kBytes
 
     INWAV:  cpu time      7.4639: real time      7.6224
 Broyden mixing: mesh for mixing (old mesh)
   NGX = 21   NGY = 21   NGZ = 41
  (NGX  = 96   NGY  = 84   NGZ  =168)
  gives a total of  18081 points

 initial charge density was supplied:
 charge density of overlapping atoms calculated
 number of electron     221.0000000 magnetization      35.4000000
 charge density for first step will be calculated from the start-wavefunctions


--------------------------------------------------------------------------------------------------------


 Maximum index for non-local projection operator         6301
 BZINTS: Fermi energy:    2.863181;  221.000000 electrons
         Band energy:-0.367320E+04;  BLOECHL correction:   -0.028899
 Maximum index for augmentation-charges          634 (set IRDMAX)


--------------------------------------------------------------------------------------------------------


 initial charge from wavefunction
 First call to EWALD:  gamma=   0.256
 Maximum number of real-space cells 4x 4x 2
 Maximum number of reciprocal cells 2x 2x 4

    FEWALD:  cpu time      0.0032: real time      0.0032


--------------------------------------- Ionic step        1  -------------------------------------------


 -----------------------------------------------------------------------------
|                                                                             |
|           W    W    AA    RRRRR   N    N  II  N    N   GGGG   !!!           |
|           W    W   A  A   R    R  NN   N  II  NN   N  G    G  !!!           |
|           W    W  A    A  R    R  N N  N  II  N N  N  G       !!!           |
|           W WW W  AAAAAA  RRRRR   N  N N  II  N  N N  G  GGG   !            |
|           WW  WW  A    A  R   R   N   NN  II  N   NN  G    G                |
|           W    W  A    A  R    R  N    N  II  N    N   GGGG   !!!           |
|                                                                             |
|     ALGO=A and IALGO=5X tend to fail with the tetrahedron method (e.g.      |
|     Bloechl's method, ISMEAR=-5, is not variational). Please switch to      |
|     IMSEAR=0-n, except for DOS calculations. For DOS calculations use       |
|     IALGO=53 after pre-converging with ISMEAR>=0.                           |
|     I HOPE YOU KNOW WHAT YOU ARE DOING!                                     |
|                                                                             |
 -----------------------------------------------------------------------------



--------------------------------------- Iteration      1(   1)  ---------------------------------------


    POTLOK:  cpu time      0.1161: real time      0.1165
    SETDIJ:  cpu time      0.0796: real time      0.0798
    TRIAL :  cpu time    461.7691: real time    463.2407
 BZINTS: Fermi energy:    2.864639;  221.000000 electrons
         Band energy:-0.367315E+04;  BLOECHL correction:   -0.028097
 BZINTS: Fermi energy:    2.863741;  221.000000 electrons
         Band energy:-0.367318E+04;  BLOECHL correction:   -0.028588
    CORREC:  cpu time    454.2669: real time    455.9355
    CHARGE:  cpu time      0.3133: real time      0.3141
    --------------------------------------------
      LOOP:  cpu time    916.5757: real time    919.7174

 eigenvalue-minimisations  :     0
 total energy-change (2. order) :-0.2675934E+03  (-0.1805132E-01)
 number of electron     221.0000017 magnetization      27.0000004
 augmentation part       80.9904456 magnetization      19.5487568

 Free energy of the ion-electron system (eV)
  ---------------------------------------------------
  alpha Z        PSCENC =       831.00435557
  Ewald energy   TEWEN  =    -12472.89879943
  -Hartree energ DENC   =    -11145.54243973
  -exchange      EXHF   =       675.68542339
  -V(xc)+E(xc)   XCENC  =       823.73932577
  PAW double counting   =     27250.94371170   -27878.97779794
  entropy T*S    EENTRO =         0.00000000
  eigenvalues    EBANDS =     -3672.88480598
  atomic energy  EATOM  =     25321.33763079
  ---------------------------------------------------
  free energy    TOTEN  =      -267.59339587 eV

  energy without entropy =     -267.59339587  energy(sigma->0) =     -267.59339587
  exchange ACFDT corr.  =        -0.01425788  see jH, gK, PRB 81, 115126


--------------------------------------------------------------------------------------------------------




--------------------------------------- Iteration      1(   2)  ---------------------------------------


    POTLOK:  cpu time      0.1101: real time      0.1103
    SETDIJ:  cpu time      0.0771: real time      0.0772
    TRIAL :  cpu time    461.1212: real time    462.9835
 BZINTS: Fermi energy:    2.862837;  221.000000 electrons
         Band energy:-0.367321E+04;  BLOECHL correction:   -0.028654
 BZINTS: Fermi energy:    2.863125;  221.000000 electrons
         Band energy:-0.367320E+04;  BLOECHL correction:   -0.028633
    CORREC:  cpu time    453.8694: real time    455.2899
    CHARGE:  cpu time      0.3121: real time      0.3128
    --------------------------------------------
      LOOP:  cpu time    915.4915: real time    918.7757

 eigenvalue-minimisations  :     0
 total energy-change (2. order) :-0.1068069E-01  (-0.4290367E-03)
 number of electron     221.0000017 magnetization      27.0000004
 augmentation part       80.9908428 magnetization      19.5484045

 Free energy of the ion-electron system (eV)
  ---------------------------------------------------
  alpha Z        PSCENC =       831.00435557
  Ewald energy   TEWEN  =    -12472.89879943
  -Hartree energ DENC   =    -11145.05014921
  -exchange      EXHF   =       675.70525281
  -V(xc)+E(xc)   XCENC  =       823.73041721
  PAW double counting   =     27249.66251710   -27877.66921238
  entropy T*S    EENTRO =         0.00000000
  eigenvalues    EBANDS =     -3673.42608900
  atomic energy  EATOM  =     25321.33763079
  ---------------------------------------------------
  free energy    TOTEN  =      -267.60407656 eV

  energy without entropy =     -267.60407656  energy(sigma->0) =     -267.60407656
  exchange ACFDT corr.  =        -0.11528286  see jH, gK, PRB 81, 115126


--------------------------------------------------------------------------------------------------------




--------------------------------------- Iteration      1(   3)  ---------------------------------------


    POTLOK:  cpu time      0.1124: real time      0.1127
    SETDIJ:  cpu time      0.0777: real time      0.0779
    TRIAL :  cpu time    460.9976: real time    463.0489
 BZINTS: Fermi energy:    2.862491;  221.000000 electrons
         Band energy:-0.367324E+04;  BLOECHL correction:   -0.028620
 BZINTS: Fermi energy:    2.862673;  221.000000 electrons
         Band energy:-0.367323E+04;  BLOECHL correction:   -0.028624
    CORREC:  cpu time    455.8799: real time    457.4100
    EDDIAG:  cpu time    452.2335: real time    453.5548
    CHARGE:  cpu time      0.3038: real time      0.3045
    --------------------------------------------
      LOOP:  cpu time   1369.6068: real time   1374.5107

 eigenvalue-minimisations  :     0
 total energy-change (2. order) :-0.4470465E-03  (-0.1543885E-03)
 number of electron     221.0000017 magnetization      27.0000004
 augmentation part       80.9907138 magnetization      19.5477088

 Free energy of the ion-electron system (eV)
  ---------------------------------------------------
  alpha Z        PSCENC =       831.00435557
  Ewald energy   TEWEN  =    -12472.89879943
  -Hartree energ DENC   =    -11145.10358971
  -exchange      EXHF   =       675.69649550
  -V(xc)+E(xc)   XCENC  =       823.72854950
  PAW double counting   =     27249.74446723   -27877.75739385
  entropy T*S    EENTRO =         0.00000000
  eigenvalues    EBANDS =     -3673.35819768
  atomic energy  EATOM  =     25321.33763079
  ---------------------------------------------------
  free energy    TOTEN  =      -267.60452360 eV

  energy without entropy =     -267.60452360  energy(sigma->0) =     -267.60452360
  exchange ACFDT corr.  =        -0.01334014  see jH, gK, PRB 81, 115126


--------------------------------------------------------------------------------------------------------


  average scaling for gradient   1.0045


 average (electrostatic) potential at core
  the test charge radii are     0.9254  0.9577  0.7215
  (the norm of the test charge is              1.0000)
       1 -39.0073       2 -38.6424       3 -39.0313       4 -66.0337       5 -67.7381
       6 -67.0097       7 -67.6630       8 -66.8638       9 -66.7869      10 -65.9334
      11 -65.4027      12 -66.0714      13 -66.6154      14 -66.4800      15 -66.5236
      16 -66.4467      17 -66.5026      18 -66.6579      19 -66.0104      20 -65.2199
      21 -65.5914      22 -65.8030      23 -65.7769      24 -65.8490      25 -65.8024
      26 -65.5938      27 -65.2937
 
 
 
 E-fermi :   2.8627     XC(G=0):  -8.1267     alpha+bet :-10.1919

 Fermi energy:         2.8626728495

 spin component 1

 k-point     1 :       0.0000    0.0000    0.0000
  band No.  band energies     occupation 
      1     -53.7372      1.00000
      2     -53.7166      1.00000
      3     -53.6936      1.00000
      4     -53.6468      1.00000
      5     -53.6145      1.00000
      6     -53.5740      1.00000
      7     -53.2560      1.00000
      8     -53.2517      1.00000
      9     -53.2131      1.00000
     10     -52.8486      1.00000
     11     -52.8289      1.00000
     12     -52.7689      1.00000
     13     -52.7635      1.00000
     14     -52.7160      1.00000
     15     -52.6678      1.00000
     16     -52.6564      1.00000
     17     -52.6133      1.00000
     18     -52.4941      1.00000
     19     -52.3932      1.00000
     20     -52.3644      1.00000
     21     -52.2925      1.00000
     22     -52.0213      1.00000
     23     -51.9933      1.00000
     24     -51.8515      1.00000
     25     -22.6519      1.00000
     26     -22.5444      1.00000
     27     -22.5180      1.00000
     28     -22.4918      1.00000
     29     -22.4799      1.00000
     30     -22.4646      1.00000
     31     -22.1504      1.00000
     32     -22.1293      1.00000
     33     -22.1228      1.00000
     34     -19.7468      1.00000
     35     -18.9722      1.00000
     36     -18.3201      1.00000
     37     -18.2469      1.00000
     38     -18.1636      1.00000
     39     -18.1065      1.00000
     40     -18.0335      1.00000
     41     -17.8315      1.00000
     42     -17.6950      1.00000
     43     -17.6804      1.00000
     44     -17.5390      1.00000
     45     -17.3988      1.00000
     46     -17.3649      1.00000
     47     -17.1728      1.00000
     48     -17.0979      1.00000
     49     -16.8490      1.00000
     50      -6.7786      1.00000
     51      -6.4691      1.00000
     52      -6.2748      1.00000
     53      -6.0458      1.00000
     54      -5.9390      1.00000
     55      -5.8105      1.00000
     56      -5.4359      1.00000
     57      -5.2886      1.00000
     58      -5.1217      1.00000
     59      -5.0040      1.00000
     60      -4.7092      1.00000
     61      -4.6421      1.00000
     62      -4.4864      1.00000
     63      -4.3821      1.00000
     64      -4.2648      1.00000
     65      -4.1610      1.00000
     66      -4.0694      1.00000
     67      -3.9436      1.00000
     68      -3.8434      1.00000
     69      -3.7220      1.00000
     70      -3.6491      1.00000
     71      -3.6190      1.00000
     72      -3.6077      1.00000
     73      -3.5890      1.00000
     74      -3.4262      1.00000
     75      -3.3977      1.00000
     76      -3.2100      1.00000
     77      -2.9874      1.00000
     78      -2.9299      1.00000
     79      -2.8662      1.00000
     80      -2.8049      1.00000
     81      -2.7220      1.00000
     82      -2.4693      1.00000
     83      -2.4563      1.00000
     84      -2.2401      1.00000
     85      -2.1539      1.00000
     86      -2.0372      1.00000
     87      -2.0330      1.00000
     88      -1.9880      1.00000
     89      -1.8424      1.00000
     90      -1.7683      1.00000
     91      -1.7309      1.00000
     92      -1.6984      1.00000
     93      -1.5673      1.00000
     94      -1.5166      1.00000
     95      -1.4557      1.00000
     96      -1.4433      1.00000
     97      -1.4193      1.00000
     98      -1.3187      1.00000
     99      -1.2776      1.00000
    100      -1.2511      1.00000
    101      -1.1100      1.00000
    102      -1.1003      1.00000
    103      -1.0834      1.00000
    104      -1.0408      1.00000
    105      -0.9439      1.00000
    106      -0.8779      1.00000
    107      -0.8284      1.00000
    108      -0.7029      1.00000
    109      -0.6875      1.00000
    110      -0.5848      1.00000
    111      -0.5474      1.00000
    112      -0.4423      1.00000
    113      -0.3670      1.00000
    114      -0.3054      1.00000
    115      -0.2050      1.00000
    116      -0.1353      1.00000
    117      -0.0291      1.00000
    118       0.0994      1.00000
    119       0.3627      1.00000
    120       0.6401      1.00000
    121       0.7185      1.00000
    122       1.8961      1.00000
    123       2.5503      1.00000
    124       3.2198     -0.03239
    125       3.3257      0.00000
    126       4.2070      0.00000
    127       4.7281      0.00000
    128       4.7524      0.00000
    129       4.9647      0.00000
    130       5.1863      0.00000
    131       5.1963      0.00000
    132       5.3515      0.00000
    133       5.4771      0.00000
    134       5.5410      0.00000
    135       5.8824      0.00000
    136       5.9082      0.00000
    137       6.1664      0.00000
    138       8.0432      0.00000
    139       9.5246      0.00000
    140      10.7536      0.00000
    141      11.6405      0.00000
    142      11.9084      0.00000
    143      12.0439      0.00000
    144      12.4832      0.00000
    145      12.9128      0.00000
    146      13.1412      0.00000
    147      13.2824      0.00000
    148      13.3389      0.00000
    149      13.5498      0.00000
    150      13.6696      0.00000
    151      13.7306      0.00000
    152      14.0479      0.00000
    153      14.1839      0.00000
    154      14.2257      0.00000
    155      14.3026      0.00000
    156      14.6397      0.00000
    157      14.7290      0.00000
    158      14.8558      0.00000
    159      15.6695      0.00000
    160      15.8897      0.00000
    161      16.5142      0.00000
    162      16.9425      0.00000
    163      17.1480      0.00000
    164      17.2880      0.00000
    165      17.3717      0.00000
    166      17.4144      0.00000
    167      17.5095      0.00000
    168      17.7509      0.00000
    169      17.9005      0.00000
    170      18.0447      0.00000
    171      18.1555      0.00000
    172      18.2697      0.00000
    173      18.5578      0.00000
    174      18.8750      0.00000
    175      19.0016      0.00000
    176      19.1166      0.00000
    177      19.4370      0.00000
    178      19.5246      0.00000
    179      19.7341      0.00000
    180      19.8792      0.00000
    181      20.0075      0.00000
    182      20.2849      0.00000
    183      20.4023      0.00000
    184      20.5482      0.00000
    185      20.8627      0.00000
    186      21.2645      0.00000
    187      21.6261      0.00000
    188      22.0604      0.00000
    189      22.0854      0.00000
    190      22.1290      0.00000
    191      22.3154      0.00000
    192      22.5253      0.00000
    193      22.7991      0.00000
    194      22.8694      0.00000
    195      23.0617      0.00000
    196      23.2585      0.00000
    197      23.3953      0.00000
    198      23.4367      0.00000
    199      23.6952      0.00000
    200      23.7442      0.00000
    201      23.9459      0.00000
    202      23.9661      0.00000
    203      24.1871      0.00000
    204      24.3971      0.00000
    205      24.4759      0.00000
    206      24.6399      0.00000
    207      24.6995      0.00000
    208      24.8085      0.00000
    209      24.8793      0.00000
    210      24.9258      0.00000
    211      25.1337      0.00000
    212      25.3507      0.00000
    213      25.4380      0.00000
    214      25.5253      0.00000
    215      25.6483      0.00000
    216      25.8363      0.00000
    217      25.8857      0.00000
    218      26.2390      0.00000
    219      26.4285      0.00000
    220      26.5630      0.00000
    221      26.6975      0.00000
    222      26.9228      0.00000
    223      27.0502      0.00000
    224      27.1554      0.00000
    225      27.3194      0.00000
    226      27.4297      0.00000
    227      27.4615      0.00000
    228      27.5386      0.00000
    229      27.7004      0.00000
    230      27.7889      0.00000
    231      28.1278      0.00000
    232      28.4433      0.00000
    233      28.5725      0.00000
    234      28.9148      0.00000
    235      29.0199      0.00000
    236      29.2441      0.00000
    237      29.3445      0.00000
    238      29.3842      0.00000
    239      29.9109      0.00000
    240      30.2246      0.00000
    241      30.4181      0.00000
    242      30.4981      0.00000
    243      30.6979      0.00000
    244      30.7693      0.00000
    245      30.8306      0.00000
    246      31.0232      0.00000
    247      31.3738      0.00000
    248      31.5530      0.00000
    249      31.7021      0.00000
    250      31.9479      0.00000
    251      32.4223      0.00000
    252      32.5491      0.00000
    253      32.7999      0.00000
    254      32.8896      0.00000
    255      33.0483      0.00000
    256      33.2398      0.00000

 k-point     2 :       0.2500   -0.0000   -0.0000
  band No.  band energies     occupation 
      1     -53.7307      1.00000
      2     -53.7134      1.00000
      3     -53.6918      1.00000
      4     -53.6482      1.00000
      5     -53.6228      1.00000
      6     -53.5740      1.00000
      7     -53.2558      1.00000
      8     -53.2518      1.00000
      9     -53.2132      1.00000
     10     -52.8466      1.00000
     11     -52.8282      1.00000
     12     -52.7672      1.00000
     13     -52.7632      1.00000
     14     -52.7159      1.00000
     15     -52.6676      1.00000
     16     -52.6572      1.00000
     17     -52.6136      1.00000
     18     -52.4949      1.00000
     19     -52.3945      1.00000
     20     -52.3653      1.00000
     21     -52.2938      1.00000
     22     -52.0220      1.00000
     23     -51.9936      1.00000
     24     -51.8523      1.00000
     25     -22.6269      1.00000
     26     -22.5367      1.00000
     27     -22.5166      1.00000
     28     -22.5063      1.00000
     29     -22.4845      1.00000
     30     -22.4801      1.00000
     31     -22.1500      1.00000
     32     -22.1293      1.00000
     33     -22.1229      1.00000
     34     -19.5717      1.00000
     35     -18.7999      1.00000
     36     -18.5942      1.00000
     37     -18.2598      1.00000
     38     -18.1612      1.00000
     39     -18.0465      1.00000
     40     -17.9882      1.00000
     41     -17.8603      1.00000
     42     -17.8370      1.00000
     43     -17.7080      1.00000
     44     -17.6632      1.00000
     45     -17.4069      1.00000
     46     -17.2867      1.00000
     47     -17.1796      1.00000
     48     -17.0826      1.00000
     49     -16.8649      1.00000
     50      -6.4948      1.00000
     51      -6.1898      1.00000
     52      -6.0011      1.00000
     53      -5.7818      1.00000
     54      -5.7594      1.00000
     55      -5.5165      1.00000
     56      -5.5059      1.00000
     57      -5.0428      1.00000
     58      -4.9740      1.00000
     59      -4.9540      1.00000
     60      -4.9201      1.00000
     61      -4.7869      1.00000
     62      -4.7121      1.00000
     63      -4.4916      1.00000
     64      -4.3430      1.00000
     65      -4.2610      1.00000
     66      -4.1741      1.00000
     67      -4.1216      1.00000
     68      -3.9943      1.00000
     69      -3.9056      1.00000
     70      -3.6930      1.00000
     71      -3.6544      1.00000
     72      -3.5765      1.00000
     73      -3.5598      1.00000
     74      -3.5413      1.00000
     75      -3.4429      1.00000
     76      -3.4170      1.00000
     77      -3.0985      1.00000
     78      -2.9978      1.00000
     79      -2.9698      1.00000
     80      -2.9396      1.00000
     81      -2.7581      1.00000
     82      -2.6754      1.00000
     83      -2.5410      1.00000
     84      -2.4628      1.00000
     85      -2.4133      1.00000
     86      -2.2176      1.00000
     87      -2.1421      1.00000
     88      -2.1207      1.00000
     89      -2.0638      1.00000
     90      -1.9598      1.00000
     91      -1.9284      1.00000
     92      -1.9014      1.00000
     93      -1.6642      1.00000
     94      -1.4959      1.00000
     95      -1.4041      1.00000
     96      -1.3786      1.00000
     97      -1.3526      1.00000
     98      -1.2702      1.00000
     99      -1.1854      1.00000
    100      -1.1727      1.00000
    101      -1.0710      1.00000
    102      -0.9862      1.00000
    103      -0.8833      1.00000
    104      -0.8012      1.00000
    105      -0.7338      1.00000
    106      -0.6512      1.00000
    107      -0.6129      1.00000
    108      -0.5857      1.00000
    109      -0.5111      1.00000
    110      -0.4806      1.00000
    111      -0.3257      1.00000
    112      -0.2539      1.00000
    113      -0.1307      1.00000
    114      -0.0794      1.00000
    115      -0.0074      1.00000
    116       0.0199      1.00000
    117       0.1946      1.00000
    118       0.3149      1.00000
    119       0.4367      1.00000
    120       0.6874      1.00000
    121       0.7716      1.00000
    122       1.5675      1.00000
    123       2.2178      1.00000
    124       2.8328      0.59821
    125       3.0179      0.08709
    126       4.0401      0.00000
    127       4.3972      0.00000
    128       4.6434      0.00000
    129       4.7353      0.00000
    130       5.0454      0.00000
    131       5.1559      0.00000
    132       5.1722      0.00000
    133       5.2742      0.00000
    134       5.4771      0.00000
    135       5.6420      0.00000
    136       5.8429      0.00000
    137       6.1303      0.00000
    138       8.6062      0.00000
    139       9.8592      0.00000
    140      10.9874      0.00000
    141      11.4070      0.00000
    142      11.8453      0.00000
    143      12.0432      0.00000
    144      12.1409      0.00000
    145      12.8191      0.00000
    146      13.0950      0.00000
    147      13.2622      0.00000
    148      13.8364      0.00000
    149      14.0375      0.00000
    150      14.2275      0.00000
    151      14.3358      0.00000
    152      14.4585      0.00000
    153      14.6140      0.00000
    154      14.8534      0.00000
    155      14.9896      0.00000
    156      15.1255      0.00000
    157      15.4456      0.00000
    158      15.6364      0.00000
    159      15.9932      0.00000
    160      16.1438      0.00000
    161      16.4289      0.00000
    162      17.1214      0.00000
    163      17.1959      0.00000
    164      17.2992      0.00000
    165      17.3542      0.00000
    166      17.4794      0.00000
    167      17.6249      0.00000
    168      17.7077      0.00000
    169      17.9069      0.00000
    170      18.0936      0.00000
    171      18.1690      0.00000
    172      18.3846      0.00000
    173      18.4581      0.00000
    174      18.7491      0.00000
    175      18.8377      0.00000
    176      18.9283      0.00000
    177      19.2112      0.00000
    178      19.3800      0.00000
    179      19.5703      0.00000
    180      19.6165      0.00000
    181      19.7121      0.00000
    182      19.8281      0.00000
    183      19.9760      0.00000
    184      20.2716      0.00000
    185      20.3596      0.00000
    186      20.6612      0.00000
    187      20.9128      0.00000
    188      21.0717      0.00000
    189      21.2742      0.00000
    190      21.5195      0.00000
    191      21.6603      0.00000
    192      21.8291      0.00000
    193      21.9200      0.00000
    194      21.9818      0.00000
    195      22.3428      0.00000
    196      22.4593      0.00000
    197      22.7747      0.00000
    198      22.9279      0.00000
    199      23.4360      0.00000
    200      23.5422      0.00000
    201      23.6390      0.00000
    202      24.0018      0.00000
    203      24.2014      0.00000
    204      24.3386      0.00000
    205      24.4700      0.00000
    206      24.7560      0.00000
    207      24.7781      0.00000
    208      24.8596      0.00000
    209      24.9736      0.00000
    210      25.2914      0.00000
    211      25.5018      0.00000
    212      25.6403      0.00000
    213      25.7881      0.00000
    214      26.0134      0.00000
    215      26.1521      0.00000
    216      26.2476      0.00000
    217      26.2946      0.00000
    218      26.4098      0.00000
    219      26.5811      0.00000
    220      26.6719      0.00000
    221      26.8522      0.00000
    222      26.9934      0.00000
    223      27.0396      0.00000
    224      27.2608      0.00000
    225      27.3576      0.00000
    226      27.4746      0.00000
    227      27.6090      0.00000
    228      27.8174      0.00000
    229      28.0490      0.00000
    230      28.1635      0.00000
    231      28.3269      0.00000
    232      28.3963      0.00000
    233      28.4812      0.00000
    234      28.6468      0.00000
    235      28.9507      0.00000
    236      29.1621      0.00000
    237      29.3340      0.00000
    238      29.6672      0.00000
    239      30.0985      0.00000
    240      30.3506      0.00000
    241      30.4508      0.00000
    242      30.5656      0.00000
    243      30.7347      0.00000
    244      30.9276      0.00000
    245      31.2251      0.00000
    246      31.3842      0.00000
    247      31.5119      0.00000
    248      31.6667      0.00000
    249      31.7364      0.00000
    250      31.9240      0.00000
    251      32.1141      0.00000
    252      32.3099      0.00000
    253      32.4554      0.00000
    254      32.5354      0.00000
    255      32.9142      0.00000
    256      33.0536      0.00000

 k-point     3 :       0.5000   -0.0000   -0.0000
  band No.  band energies     occupation 
      1     -53.7252      1.00000
      2     -53.7084      1.00000
      3     -53.6877      1.00000
      4     -53.6520      1.00000
      5     -53.6318      1.00000
      6     -53.5739      1.00000
      7     -53.2559      1.00000
      8     -53.2516      1.00000
      9     -53.2134      1.00000
     10     -52.8446      1.00000
     11     -52.8276      1.00000
     12     -52.7655      1.00000
     13     -52.7628      1.00000
     14     -52.7157      1.00000
     15     -52.6675      1.00000
     16     -52.6580      1.00000
     17     -52.6139      1.00000
     18     -52.4957      1.00000
     19     -52.3957      1.00000
     20     -52.3663      1.00000
     21     -52.2950      1.00000
     22     -52.0226      1.00000
     23     -51.9939      1.00000
     24     -51.8530      1.00000
     25     -22.5754      1.00000
     26     -22.5549      1.00000
     27     -22.5249      1.00000
     28     -22.5129      1.00000
     29     -22.4997      1.00000
     30     -22.4837      1.00000
     31     -22.1497      1.00000
     32     -22.1293      1.00000
     33     -22.1230      1.00000
     34     -19.1365      1.00000
     35     -19.1001      1.00000
     36     -18.3788      1.00000
     37     -18.3269      1.00000
     38     -18.2505      1.00000
     39     -18.1324      1.00000
     40     -18.0546      1.00000
     41     -17.9679      1.00000
     42     -17.8650      1.00000
     43     -17.7262      1.00000
     44     -17.6521      1.00000
     45     -17.4205      1.00000
     46     -17.2524      1.00000
     47     -17.1882      1.00000
     48     -17.0676      1.00000
     49     -16.8804      1.00000
     50      -6.0010      1.00000
     51      -5.9156      1.00000
     52      -5.7017      1.00000
     53      -5.5255      1.00000
     54      -5.3888      1.00000
     55      -5.3485      1.00000
     56      -5.3369      1.00000
     57      -5.1278      1.00000
     58      -5.0920      1.00000
     59      -5.0493      1.00000
     60      -5.0354      1.00000
     61      -4.7137      1.00000
     62      -4.5813      1.00000
     63      -4.5372      1.00000
     64      -4.5217      1.00000
     65      -4.3949      1.00000
     66      -4.2603      1.00000
     67      -4.0629      1.00000
     68      -3.9966      1.00000
     69      -3.9889      1.00000
     70      -3.8492      1.00000
     71      -3.8002      1.00000
     72      -3.7482      1.00000
     73      -3.6582      1.00000
     74      -3.5492      1.00000
     75      -3.4832      1.00000
     76      -3.4542      1.00000
     77      -3.3909      1.00000
     78      -3.2164      1.00000
     79      -3.1750      1.00000
     80      -3.1228      1.00000
     81      -3.0602      1.00000
     82      -2.9979      1.00000
     83      -2.8265      1.00000
     84      -2.7567      1.00000
     85      -2.6404      1.00000
     86      -2.5777      1.00000
     87      -2.3077      1.00000
     88      -2.1102      1.00000
     89      -2.0887      1.00000
     90      -2.0151      1.00000
     91      -1.8120      1.00000
     92      -1.7551      1.00000
     93      -1.6901      1.00000
     94      -1.5278      1.00000
     95      -1.4388      1.00000
     96      -1.4357      1.00000
     97      -1.3682      1.00000
     98      -1.3196      1.00000
     99      -1.1397      1.00000
    100      -1.1117      1.00000
    101      -0.9620      1.00000
    102      -0.8087      1.00000
    103      -0.7360      1.00000
    104      -0.6703      1.00000
    105      -0.5930      1.00000
    106      -0.5230      1.00000
    107      -0.4223      1.00000
    108      -0.3462      1.00000
[...]
    239      30.2582      0.00000
    240      30.5614      0.00000
    241      30.9255      0.00000
    242      31.0341      0.00000
    243      31.1986      0.00000
    244      31.3297      0.00000
    245      31.7281      0.00000
    246      32.0674      0.00000
    247      32.2359      0.00000
    248      32.3194      0.00000
    249      32.7032      0.00000
    250      32.7679      0.00000
    251      32.9916      0.00000
    252      33.1768      0.00000
    253      33.4055      0.00000
    254      33.6721      0.00000
    255      33.7575      0.00000
    256      34.0490      0.00000


--------------------------------------------------------------------------------------------------------


 soft charge-density along one line, spin component           1
         0         1         2         3         4         5         6         7         8         9
 total charge-density along one line
 
 soft charge-density along one line, spin component           2
         0         1         2         3         4         5         6         7         8         9
 total charge-density along one line
 
 pseudopotential strength for first ion, spin component:           1
-21.615   0.007  -0.002   0.309  -0.003   0.001  -0.001  -0.002
  0.007 -21.596   0.009  -0.003   0.301  -0.003  -0.001  -0.004
 -0.002   0.009 -21.644   0.001  -0.003   0.320  -0.002  -0.008
  0.309  -0.003   0.001   7.367   0.000  -0.000   0.000   0.000
 -0.003   0.301  -0.003   0.000   7.368   0.000   0.000  -0.000
  0.001  -0.003   0.320  -0.000   0.000   7.366   0.000  -0.001
 -0.001  -0.001  -0.002   0.000   0.000   0.000   1.395   6.755
 -0.002  -0.004  -0.008   0.000  -0.000  -0.001   6.755  32.433
 pseudopotential strength for first ion, spin component:           2
-21.615   0.007  -0.002   0.308  -0.003   0.001  -0.001  -0.002
  0.007 -21.595   0.009  -0.003   0.301  -0.004  -0.001  -0.003
 -0.002   0.009 -21.643   0.001  -0.004   0.320  -0.002  -0.008
  0.308  -0.003   0.001   7.367   0.000   0.000   0.000  -0.000
 -0.003   0.301  -0.004   0.000   7.368   0.000  -0.000  -0.001
  0.001  -0.004   0.320   0.000   0.000   7.366   0.000  -0.001
 -0.001  -0.001  -0.002   0.000  -0.000   0.000   1.395   6.755
 -0.002  -0.003  -0.008  -0.000  -0.001  -0.001   6.755  32.433
 total augmentation occupancy for first ion, spin component:           1
  2.003  -0.000   0.000  -0.005  -0.001   0.000   0.002  -0.001
 -0.000   2.003  -0.000  -0.001  -0.009  -0.001   0.005  -0.001
  0.000  -0.000   2.004   0.000  -0.001  -0.001   0.009  -0.003
 -0.005  -0.001   0.000   0.015   0.003  -0.000   0.003  -0.000
 -0.001  -0.009  -0.001   0.003   0.026   0.003  -0.001   0.000
  0.000  -0.001  -0.001  -0.000   0.003   0.016   0.004  -0.000
  0.002   0.005   0.009   0.003  -0.001   0.004   0.457  -0.010
 -0.001  -0.001  -0.003  -0.000   0.000  -0.000  -0.010   0.000
 total augmentation occupancy for first ion, spin component:           2
 -0.000  -0.000   0.000   0.000  -0.000  -0.000   0.000  -0.000
 -0.000  -0.000   0.000  -0.000   0.000  -0.000   0.001  -0.000
  0.000   0.000   0.000  -0.000  -0.000   0.000   0.000  -0.000
  0.000  -0.000  -0.000  -0.000   0.000   0.000  -0.000   0.000
 -0.000   0.000  -0.000   0.000   0.001   0.000  -0.003   0.000
 -0.000  -0.000   0.000   0.000   0.000   0.000  -0.001   0.000
  0.000   0.001   0.000  -0.000  -0.003  -0.001   0.019  -0.000
 -0.000  -0.000  -0.000   0.000   0.000   0.000  -0.000   0.000


------------------------ aborting loop because EDIFF is reached ----------------------------------------





 total charge

# of ion       s       p       d       tot
------------------------------------------
    1        0.045   5.993   0.000   6.039
    2        0.035   5.982   0.000   6.017
    3        0.046   5.993   0.000   6.039
    4        0.313   6.366   4.837  11.515
    5        0.375   6.489   4.794  11.658
    6        0.341   6.428   4.799  11.568
    7        0.374   6.487   4.792  11.654
    8        0.378   6.495   4.798  11.671
    9        0.382   6.504   4.810  11.696
   10        0.325   6.389   4.810  11.524
   11        0.311   6.361   4.830  11.502
   12        1.577   3.492   0.000   5.069
   13        1.577   3.459   0.000   5.037
   14        1.576   3.480   0.000   5.056
   15        1.580   3.466   0.000   5.046
   16        1.570   3.487   0.000   5.057
   17        1.576   3.488   0.000   5.064
   18        1.576   3.462   0.000   5.038
   19        1.571   3.499   0.000   5.070
   20        1.569   3.493   0.000   5.062
   21        1.575   3.467   0.000   5.042
   22        1.572   3.501   0.000   5.073
   23        1.568   3.505   0.000   5.072
   24        1.573   3.503   0.000   5.076
   25        1.573   3.497   0.000   5.070
   26        1.577   3.468   0.000   5.045
   27        1.582   3.461   0.000   5.043
--------------------------------------------------
tot         28.118 125.215  38.470 191.804



 magnetization (x)

# of ion       s       p       d       tot
------------------------------------------
    1        0.002   0.000   0.000   0.002
    2        0.003   0.001   0.000   0.004
    3        0.002   0.001   0.000   0.003
    4        0.037   0.034   3.701   3.772
    5        0.032   0.044   3.019   3.096
    6        0.032   0.040   3.335   3.408
    7        0.030   0.041   3.004   3.075
    8        0.028   0.040   2.980   3.049
    9        0.029   0.042   2.974   3.045
   10        0.036   0.037   3.549   3.622
   11        0.037   0.033   3.706   3.777
   12        0.007   0.050   0.000   0.057
   13        0.002  -0.085   0.000  -0.083
   14        0.002  -0.059   0.000  -0.056
   15        0.002  -0.053   0.000  -0.052
   16        0.002  -0.037   0.000  -0.035
   17        0.002  -0.060   0.000  -0.057
   18        0.002  -0.080   0.000  -0.078
   19        0.007   0.040   0.000   0.047
   20        0.007   0.044   0.000   0.051
   21        0.004  -0.030   0.000  -0.025
   22        0.001  -0.052   0.000  -0.051
   23        0.002  -0.033   0.000  -0.031
   24        0.001  -0.045   0.000  -0.044
   25        0.001  -0.053   0.000  -0.053
   26        0.005  -0.042   0.000  -0.037
   27        0.007   0.043   0.000   0.050
--------------------------------------------------
tot          0.321  -0.136  26.269  26.454
 
    FORLOC:  cpu time      0.0009: real time      0.0009
    FORHF :  cpu time    611.7321: real time    614.0197
    FORNL :  cpu time      1.5510: real time      1.5579
    STRESS:  cpu time      4.5542: real time      4.5758
    FORCOR:  cpu time      0.0944: real time      0.0947
    OFIELD:  cpu time      0.0002: real time      0.0004

  FORCE on cell =-STRESS in cart. coord.  units (eV):
  Direction    XX          YY          ZZ          XY          YZ          ZX
  --------------------------------------------------------------------------------------
  Alpha Z   831.00436   831.00436   831.00436
  Ewald     331.95580   450.23179-13255.13532  -208.59125     6.23337    76.04156
  Hartree  7374.54263  7357.74890 -3587.23448  -103.92656     4.32808    49.94781
  E(xc)    -919.43455  -919.12535  -921.50975    -0.16069     0.00179     0.03170
  Local  -10993.50197-11075.83889 13485.38242   300.97997   -10.77791  -121.00472
  n-local   240.39870   242.18720   235.44751    -0.10558    -0.03253    -0.57853
  augment   932.05839   922.48536   942.11254     4.36871     0.33909    -2.52304
  Kinetic  3333.81025  3316.83772  3406.30203    10.45222    -0.00623    -3.42124
  Fock    -1131.58271 -1125.88681 -1136.50457    -2.71190    -0.03591     1.44837
  -------------------------------------------------------------------------------------
  Total      -0.74910    -0.35573    -0.13528     0.30492     0.04975    -0.05808
  in kB      -3.62984    -1.72372    -0.65549     1.47752     0.24108    -0.28144
  external pressure =       -2.00 kB  Pullay stress =        0.00 kB


 VOLUME and BASIS-vectors are now :
 -----------------------------------------------------------------------------
  energy-cutoff  :      520.00
  volume of cell :      330.64
      direct lattice vectors                 reciprocal lattice vectors
    -3.032117312 -4.994641318 -0.019784993    -0.167381860 -0.098605152  0.000950208
    -2.893635824  4.911811432 -0.012875171    -0.170203698  0.103322996  0.000822535
    -0.059279504 -0.007952460-11.267503516     0.000488400  0.000055079 -0.088753413

  length of vectors
     5.842993131  5.700805697 11.267662259     0.194269313  0.199112071  0.088754774


 FORCES acting on ions:
    Electron-Ion                     Ewald-Force                    Non-Local-Force
 -----------------------------------------------------------------------------------------------
   0.169E+02 0.648E+00 -.718E-01   -.163E+02 -.466E+00 0.400E+00   -.589E+00 -.205E+00 -.218E+00
   0.227E+01 0.612E+01 -.283E+02   -.196E+01 -.612E+01 0.263E+02   -.295E+00 -.229E-02 0.174E+01
   -.162E+02 -.604E+01 0.383E+02   0.155E+02 0.545E+01 -.350E+02   0.719E+00 0.539E+00 -.300E+01
   -.224E+02 0.299E+02 0.151E+03   0.228E+02 -.302E+02 -.152E+03   -.390E+00 0.368E+00 0.589E+00
   0.390E+01 -.487E+02 0.224E+03   -.381E+01 0.487E+02 -.224E+03   -.130E+00 -.131E+00 0.459E+00
   -.599E+01 -.111E+02 0.307E+03   0.597E+01 0.112E+02 -.307E+03   0.561E-01 -.265E+00 0.398E-01
   0.228E+02 0.246E+02 0.111E+03   -.231E+02 -.248E+02 -.112E+03   0.243E+00 0.512E+00 0.143E+01
   -.209E+02 0.245E+02 -.108E+03   0.211E+02 -.251E+02 0.109E+03   -.269E+00 0.722E+00 -.137E+01
   -.715E+01 -.476E+02 -.213E+03   0.703E+01 0.479E+02 0.213E+03   0.168E+00 -.419E+00 -.554E+00
   0.524E+01 -.151E+02 -.323E+03   -.527E+01 0.151E+02 0.323E+03   0.817E-02 -.150E+00 0.153E-01
   0.338E+02 0.377E+02 -.156E+03   -.338E+02 -.379E+02 0.156E+03   -.123E+00 0.285E+00 -.541E+00
   -.508E+02 0.142E+02 0.554E+03   0.552E+02 -.116E+02 -.575E+03   -.380E+01 -.221E+01 0.188E+02
   0.408E+02 -.322E+02 0.561E+03   -.424E+02 0.334E+02 -.583E+03   0.140E+01 -.110E+01 0.190E+02
   -.560E+02 -.402E+01 0.559E+03   0.591E+02 0.511E+01 -.582E+03   -.277E+01 -.968E+00 0.197E+02
   0.216E+02 -.240E+02 0.579E+03   -.220E+02 0.261E+02 -.604E+03   0.160E+00 -.182E+01 0.221E+02
   -.191E+02 0.632E+02 -.379E+03   0.193E+02 -.662E+02 0.398E+03   -.907E-01 0.259E+01 -.164E+02
   0.290E+02 -.438E+02 -.387E+03   -.320E+02 0.427E+02 0.408E+03   0.266E+01 0.990E+00 -.183E+02
   -.124E+02 -.271E+02 -.411E+03   0.137E+02 0.265E+02 0.432E+03   -.118E+01 0.512E+00 -.184E+02
   0.493E+02 0.576E+02 -.372E+03   -.535E+02 -.611E+02 0.389E+03   0.372E+01 0.315E+01 -.154E+02
   0.450E+02 0.782E+02 0.383E+03   -.488E+02 -.824E+02 -.399E+03   0.333E+01 0.379E+01 0.141E+02
   0.459E+02 -.189E+02 0.414E+03   -.500E+02 0.176E+02 -.434E+03   0.363E+01 0.117E+01 0.171E+02
   -.241E+02 -.515E+02 0.382E+03   0.246E+02 0.512E+02 -.403E+03   -.460E+00 0.377E+00 0.178E+02
   -.333E+02 0.386E+02 0.359E+03   0.338E+02 -.406E+02 -.377E+03   -.379E+00 0.160E+01 0.156E+02
   0.287E+02 0.342E+02 -.531E+03   -.285E+02 -.332E+02 0.552E+03   -.242E+00 -.744E+00 -.187E+02
   0.503E+02 -.309E+01 -.550E+03   -.506E+02 0.423E+01 0.572E+03   0.262E+00 -.107E+01 -.190E+02
   -.706E+02 -.428E+02 -.563E+03   0.746E+02 0.450E+02 0.584E+03   -.361E+01 -.189E+01 -.180E+02
   -.549E+02 -.362E+02 -.599E+03   0.592E+02 0.395E+02 0.623E+03   -.384E+01 -.294E+01 -.209E+02
 -----------------------------------------------------------------------------------------------
   0.176E+01 -.283E+01 0.256E+01   -.711E-14 0.121E-12 0.568E-12   -.182E+01 0.266E+01 -.239E+01
 
 
 POSITION                                       TOTAL-FORCE (eV/Angst)
 -----------------------------------------------------------------------------------
     -2.90834      1.68532     -2.80870         0.012623     -0.037148      0.086848
     -1.51626      0.70650     -8.48511        -0.009662     -0.004300     -0.102331
     -2.97415     -3.31402     -2.80752         0.042281     -0.003491      0.067184
     -5.92131     -0.09703     -5.61416         0.020042      0.096616      0.020402
     -4.46948     -2.53367     -5.64311        -0.006269     -0.092588      0.029218
     -4.41255      2.41768     -5.69676         0.021430     -0.155149      0.148467
     -2.96354     -0.04829     -5.57979        -0.058545      0.152688      0.071897
     -0.03172     -0.02054     -0.07726        -0.011168      0.085317     -0.047452
     -1.48678      2.45482     -0.03434         0.019077     -0.064552     -0.058604
     -1.61203     -2.51838    -11.21909        -0.006667     -0.061546     -0.067091
     -2.99362     -0.06033     -0.05976        -0.028736      0.036592      0.003720
     -1.65801     -0.88316     -6.60018         0.010369      0.030319     -0.129494
     -2.84915      1.57810     -6.59370         0.048845     -0.001571      0.007898
     -3.05567     -3.37301     -6.57167        -0.016085      0.000146      0.038355
     -4.38123     -0.86538     -6.52876        -0.129584      0.003424      0.063283
     -1.51082      0.83466     -4.59410         0.094544     -0.022739     -0.182914
     -2.90039      3.23686     -4.68466         0.015041      0.029686     -0.052023
     -3.03689     -1.72202     -4.63267        -0.029564      0.009135     -0.041179
     -4.28704      0.89946     -4.58281         0.029954     -0.003070     -0.016025
     -1.35525      0.90349     -1.14937         0.030467      0.047909      0.089706
     -2.84666      3.27449     -1.08884         0.022499      0.013875      0.044674
     -3.02583     -1.74272     -0.96101        -0.046888      0.089001      0.063692
     -4.50136      0.80044     -1.02736         0.125058     -0.133638      0.102417
     -1.52202     -0.82053    -10.38564        -0.127447      0.122664     -0.031248
     -2.97535      1.58425    -10.37831         0.050666     -0.075466     -0.063606
     -3.24154     -3.44709    -10.30756        -0.048466     -0.012538     -0.052620
     -4.72829     -0.96564    -10.34754        -0.023814     -0.049577      0.006825
 -----------------------------------------------------------------------------------
    total drift:                               -0.008081      0.013949      0.006623


--------------------------------------------------------------------------------------------------------



  FREE ENERGIE OF THE ION-ELECTRON SYSTEM (eV)
  ---------------------------------------------------
  free  energy   TOTEN  =      -267.60452360 eV

  energy  without entropy=     -267.60452360  energy(sigma->0) =     -267.60452360
 


--------------------------------------------------------------------------------------------------------


    POTLOK:  cpu time      0.1900: real time      0.1907


--------------------------------------------------------------------------------------------------------


     LOOP+:  cpu time   3823.9921: real time   3837.7682
 -----------------------------------------------------------------------------
|                                                                             |
|           W    W    AA    RRRRR   N    N  II  N    N   GGGG   !!!           |
|           W    W   A  A   R    R  NN   N  II  NN   N  G    G  !!!           |
|           W    W  A    A  R    R  N N  N  II  N N  N  G       !!!           |
|           W WW W  AAAAAA  RRRRR   N  N N  II  N  N N  G  GGG   !            |
|           WW  WW  A    A  R   R   N   NN  II  N   NN  G    G                |
|           W    W  A    A  R    R  N    N  II  N    N   GGGG   !!!           |
|                                                                             |
|     Tetrahedron method does not include variations of the Fermi             |
|     occupations, so forces and stress will be inaccurate. We suggest        |
|     using a different smearing scheme ISMEAR = 1 or 2 for metals in         |
|     relaxations.                                                            |
|                                                                             |
 -----------------------------------------------------------------------------

    4ORBIT:  cpu time      0.0000: real time      0.0000



 total charge

# of ion       s       p       d       tot
------------------------------------------
    1        0.045   5.993   0.000   6.039
    2        0.035   5.982   0.000   6.017
    3        0.046   5.993   0.000   6.039
    4        0.313   6.366   4.837  11.515
    5        0.375   6.489   4.794  11.658
    6        0.341   6.428   4.799  11.568
    7        0.374   6.487   4.792  11.654
    8        0.378   6.495   4.798  11.671
    9        0.382   6.504   4.810  11.696
   10        0.325   6.389   4.810  11.524
   11        0.311   6.361   4.830  11.502
   12        1.577   3.492   0.000   5.069
   13        1.577   3.459   0.000   5.037
   14        1.576   3.480   0.000   5.056
   15        1.580   3.466   0.000   5.046
   16        1.570   3.487   0.000   5.057
   17        1.576   3.488   0.000   5.064
   18        1.576   3.462   0.000   5.038
   19        1.571   3.499   0.000   5.070
   20        1.569   3.493   0.000   5.062
   21        1.575   3.467   0.000   5.042
   22        1.572   3.501   0.000   5.073
   23        1.568   3.505   0.000   5.072
   24        1.573   3.503   0.000   5.076
   25        1.573   3.497   0.000   5.070
   26        1.577   3.468   0.000   5.045
   27        1.582   3.461   0.000   5.043
--------------------------------------------------
tot         28.118 125.215  38.470 191.804



 magnetization (x)

# of ion       s       p       d       tot
------------------------------------------
    1        0.002   0.000   0.000   0.002
    2        0.003   0.001   0.000   0.004
    3        0.002   0.001   0.000   0.003
    4        0.037   0.034   3.701   3.772
    5        0.032   0.044   3.019   3.096
    6        0.032   0.040   3.335   3.408
    7        0.030   0.041   3.004   3.075
    8        0.028   0.040   2.980   3.049
    9        0.029   0.042   2.974   3.045
   10        0.036   0.037   3.549   3.622
   11        0.037   0.033   3.706   3.777
   12        0.007   0.050   0.000   0.057
   13        0.002  -0.085   0.000  -0.083
   14        0.002  -0.059   0.000  -0.056
   15        0.002  -0.053   0.000  -0.052
   16        0.002  -0.037   0.000  -0.035
   17        0.002  -0.060   0.000  -0.057
   18        0.002  -0.080   0.000  -0.078
   19        0.007   0.040   0.000   0.047
   20        0.007   0.044   0.000   0.051
   21        0.004  -0.030   0.000  -0.025
   22        0.001  -0.052   0.000  -0.051
   23        0.002  -0.033   0.000  -0.031
   24        0.001  -0.045   0.000  -0.044
   25        0.001  -0.053   0.000  -0.053
   26        0.005  -0.042   0.000  -0.037
   27        0.007   0.043   0.000   0.050
--------------------------------------------------
tot          0.321  -0.136  26.269  26.454
 
 BZINTS: Fermi energy:    2.861137;  221.000000 electrons
         Band energy:-0.367342E+04;  BLOECHL correction:   -0.028689

 total amount of memory used by VASP MPI-rank0   180023. kBytes
=======================================================================

   base      :      30000. kBytes
   nonlr-proj:      21296. kBytes
   fftplans  :       1190. kBytes
   grid      :      14865. kBytes
   one-center:        839. kBytes
   HF        :        194. kBytes
   wavefun   :      35880. kBytes
   fock_wrk  :      75759. kBytes
 
  
  
 General timing and accounting informations for this job:
 ========================================================
  
                  Total CPU time used (sec):     5117.998
                            User time (sec):     5100.806
                          System time (sec):       17.192
                         Elapsed time (sec):     5140.250
  
                   Maximum memory used (kb):      727660.
                   Average memory used (kb):          N/A
  
                          Minor page faults:      2952806
                          Major page faults:            2
                 Voluntary context switches:        20589
