 vasp.6.4.2 20Jul23 (build Nov 27 2023 21:25:52) complex                        
  
 executed on             LinuxIFC date 2024.12.10  17:07:14
 running   64 mpi-ranks, on    1 nodes
 distrk:  each k-point on   64 cores,    1 groups
 distr:  one band on NCORE=   1 cores,   64 groups


--------------------------------------------------------------------------------------------------------


 INCAR:
   ALGO = All
   EDIFF = 0.00135
   ENCUT = 520
   HFSCREEN = 0.2
   IBRION = 2
   ICHARG = 1
   ISIF = 3
   ISMEAR = 0
   ISPIN = 2
   LHFCALC = True
   LMAXMIX = 4
   LORBIT = 11
   LREAL = Auto
   LWAVE = False
   MAGMOM = 3*0.6 8*3.0 16*0.6
   NELM = 100
   NSW = 99
   PREC = Accurate
   PRECFOCK = Fast
   SIGMA = 0.05

 POTCAR:    PAW_PBE Na_pv 19Sep2006               
 POTCAR:    PAW_PBE Mn_pv 02Aug2007               
 POTCAR:    PAW_PBE O 08Apr2002                   
 -----------------------------------------------------------------------------
|                                                                             |
|           W    W    AA    RRRRR   N    N  II  N    N   GGGG   !!!           |
|           W    W   A  A   R    R  NN   N  II  NN   N  G    G  !!!           |
|           W    W  A    A  R    R  N N  N  II  N N  N  G       !!!           |
|           W WW W  AAAAAA  RRRRR   N  N N  II  N  N N  G  GGG   !            |
|           WW  WW  A    A  R   R   N   NN  II  N   NN  G    G                |
|           W    W  A    A  R    R  N    N  II  N    N   GGGG   !!!           |
|                                                                             |
|     For optimal performance we recommend to set                             |
|       NCORE = 2 up to number-of-cores-per-socket                            |
|     NCORE specifies how many cores store one orbital (NPAR=cpu/NCORE).      |
|     This setting can greatly improve the performance of VASP for DFT.       |
|     The default, NCORE=1 might be grossly inefficient on modern             |
|     multi-core architectures or massively parallel machines. Do your        |
|     own testing! More info at https://www.vasp.at/wiki/index.php/NCORE      |
|     Unfortunately you need to use the default for GW and RPA                |
|     calculations (for HF NCORE is supported but not extensively tested      |
|     yet).                                                                   |
|                                                                             |
 -----------------------------------------------------------------------------

 POTCAR:    PAW_PBE Na_pv 19Sep2006               
   VRHFIN =Na: p6s1                                                                                 
   LEXCH  = PE                                                                                      
   EATOM  =   766.0439 eV,   56.3026 Ry                                                             
                                                                                                    
   TITEL  = PAW_PBE Na_pv 19Sep2006                                                                 
   LULTRA =        F    use ultrasoft PP ?                                                          
   IUNSCR =        1    unscreen: 0-lin 1-nonlin 2-no                                               
   RPACOR =    1.800    partial core radius                                                         
   POMASS =   22.990; ZVAL   =    7.000    mass and valenz                                          
   RCORE  =    2.200    outmost cutoff radius                                                       
   RWIGS  =    2.200; RWIGS  =    1.164    wigner-seitz radius (au A)                               
   ENMAX  =  259.561; ENMIN  =  194.671 eV                                                          
   ICORE  =        2    local potential                                                             
   LCOR   =        T    correct aug charges                                                         
   LPAW   =        T    paw PP                                                                      
   EAUG   =  368.056                                                                                
   DEXC   =    0.000                                                                                
   RMAX   =    2.245    core radius for proj-oper                                                   
   RAUG   =    1.300    factor for augmentation sphere                                              
   RDEP   =    2.259    radius for radial grids                                                     
   RDEPT  =    1.738    core radius for aug-charge                                                  
                                                                                                    
   Atomic configuration                                                                             
    5 entries                                                                                       
     n  l   j            E        occ.                                                              
     1  0  0.50     -1033.6933   2.0000                                                             
     2  0  0.50       -56.7526   2.0000                                                             
     2  1  1.50       -28.6721   6.0000                                                             
     3  0  0.50        -2.7440   1.0000                                                             
     3  2  1.50        -1.3606   0.0000                                                             
   Description                                                                                      
     l       E           TYP  RCUT    TYP  RCUT                                                     
     1    -28.6720912     23  2.000                                                                 
     1      6.8029130     23  2.000                                                                 
     0     -2.7439560     23  2.200                                                                 
     0     34.0145650     23  2.200                                                                 
     2     -1.3605826     23  2.200                                                                 
  local pseudopotential read in
  partial core-charges read in
  partial kinetic energy density read in
  atomic valenz-charges read in
  non local Contribution for L=           1  read in
    real space projection operators read in
  non local Contribution for L=           1  read in
    real space projection operators read in
  non local Contribution for L=           0  read in
    real space projection operators read in
  non local Contribution for L=           0  read in
    real space projection operators read in
    PAW grid and wavefunctions read in
 
   number of l-projection  operators is LMAX  =           4
   number of lm-projection operators is LMMAX =           8
 
 POTCAR:    PAW_PBE Mn_pv 02Aug2007               
   VRHFIN =Mn: 3p4s3d                                                                               
   LEXCH  = PE                                                                                      
   EATOM  =  2025.2664 eV,  148.8529 Ry                                                             
                                                                                                    
   TITEL  = PAW_PBE Mn_pv 02Aug2007                                                                 
   LULTRA =        F    use ultrasoft PP ?                                                          
   IUNSCR =        1    unscreen: 0-lin 1-nonlin 2-no                                               
   RPACOR =    2.080    partial core radius                                                         
   POMASS =   54.938; ZVAL   =   13.000    mass and valenz                                          
   RCORE  =    2.300    outmost cutoff radius                                                       
   RWIGS  =    2.500; RWIGS  =    1.323    wigner-seitz radius (au A)                               
   ENMAX  =  269.864; ENMIN  =  202.398 eV                                                          
   ICORE  =        3    local potential                                                             
   LCOR   =        T    correct aug charges                                                         
   LPAW   =        T    paw PP                                                                      
   EAUG   =  569.085                                                                                
   DEXC   =    0.000                                                                                
   RMAX   =    2.343    core radius for proj-oper                                                   
   RAUG   =    1.300    factor for augmentation sphere                                              
   RDEP   =    2.338    radius for radial grids                                                     
   RDEPT  =    1.798    core radius for aug-charge                                                  
                                                                                                    
   Atomic configuration                                                                             
    8 entries                                                                                       
     n  l   j            E        occ.                                                              
     1  0  0.50     -6424.8287   2.0000                                                             
     2  0  0.50      -739.1154   2.0000                                                             
     2  1  1.50      -625.3949   6.0000                                                             
     3  0  0.50       -81.6100   2.0000                                                             
     3  1  1.50       -50.4667   6.0000                                                             
     3  2  2.50        -3.3745   6.0000                                                             
     4  0  0.50        -4.1331   1.0000                                                             
     4  3  2.50        -1.3606   0.0000                                                             
   Description                                                                                      
     l       E           TYP  RCUT    TYP  RCUT                                                     
     1    -50.4666628     23  2.000                                                                 
     1     -1.3605826     23  2.000                                                                 
     2     -3.3744729     23  2.300                                                                 
     2     -4.7350555     23  2.300                                                                 
     0     -4.1331431     23  2.300                                                                 
     0      7.6656591     23  2.300                                                                 
     3      9.5240782     23  2.300                                                                 
  local pseudopotential read in
  partial core-charges read in
  partial kinetic energy density read in
  atomic valenz-charges read in
  non local Contribution for L=           1  read in
    real space projection operators read in
  non local Contribution for L=           1  read in
    real space projection operators read in
  non local Contribution for L=           2  read in
    real space projection operators read in
  non local Contribution for L=           2  read in
    real space projection operators read in
  non local Contribution for L=           0  read in
    real space projection operators read in
  non local Contribution for L=           0  read in
    real space projection operators read in
    PAW grid and wavefunctions read in
 
   number of l-projection  operators is LMAX  =           6
   number of lm-projection operators is LMMAX =          18
 
 POTCAR:    PAW_PBE O 08Apr2002                   
   VRHFIN =O: s2p4                                                                                  
   LEXCH  = PE                                                                                      
   EATOM  =   432.3788 eV,   31.7789 Ry                                                             
                                                                                                    
   TITEL  = PAW_PBE O 08Apr2002                                                                     
   LULTRA =        F    use ultrasoft PP ?                                                          
   IUNSCR =        1    unscreen: 0-lin 1-nonlin 2-no                                               
   RPACOR =    1.200    partial core radius                                                         
   POMASS =   16.000; ZVAL   =    6.000    mass and valenz                                          
   RCORE  =    1.520    outmost cutoff radius                                                       
   RWIGS  =    1.550; RWIGS  =    0.820    wigner-seitz radius (au A)                               
   ENMAX  =  400.000; ENMIN  =  300.000 eV                                                          
   ICORE  =        2    local potential                                                             
   LCOR   =        T    correct aug charges                                                         
   LPAW   =        T    paw PP                                                                      
   EAUG   =  605.392                                                                                
   DEXC   =    0.000                                                                                
   RMAX   =    1.553    core radius for proj-oper                                                   
   RAUG   =    1.300    factor for augmentation sphere                                              
   RDEP   =    1.550    radius for radial grids                                                     
   RDEPT  =    1.329    core radius for aug-charge                                                  
                                                                                                    
   Atomic configuration                                                                             
    4 entries                                                                                       
     n  l   j            E        occ.                                                              
     1  0  0.50      -514.6923   2.0000                                                             
     2  0  0.50       -23.9615   2.0000                                                             
     2  1  0.50        -9.0305   4.0000                                                             
     3  2  1.50        -9.5241   0.0000                                                             
   Description                                                                                      
     l       E           TYP  RCUT    TYP  RCUT                                                     
     0    -23.9615318     23  1.200                                                                 
     0     -9.5240782     23  1.200                                                                 
     1     -9.0304911     23  1.520                                                                 
     1      8.1634956     23  1.520                                                                 
     2     -9.5240782      7  1.500                                                                 
  local pseudopotential read in
  partial core-charges read in
  partial kinetic energy density read in
  kinetic energy density of atom read in
  atomic valenz-charges read in
  non local Contribution for L=           0  read in
    real space projection operators read in
  non local Contribution for L=           0  read in
    real space projection operators read in
  non local Contribution for L=           1  read in
    real space projection operators read in
  non local Contribution for L=           1  read in
    real space projection operators read in
    PAW grid and wavefunctions read in
 
   number of l-projection  operators is LMAX  =           4
   number of lm-projection operators is LMMAX =           8
 
 Optimization of the real space projectors (new method)

 maximal supplied QI-value         = 17.01
 optimisation between [QCUT,QGAM] = [ 11.57, 23.30] = [ 37.45,152.03] Ry 
 Optimized for a Real-space Cutoff    1.45 Angstroem

   l    n(q)    QCUT    max X(q) W(low)/X(q) W(high)/X(q)  e(spline) 
   1     10    11.565     4.940    0.87E-04    0.13E-03    0.13E-06
   1     10    11.565     6.253    0.13E-03    0.19E-03    0.20E-06
   0     10    11.565    37.438    0.53E-04    0.73E-05    0.79E-07
   0     10    11.565     9.606    0.27E-04    0.60E-05    0.56E-07
 Optimization of the real space projectors (new method)

 maximal supplied QI-value         = 16.25
 optimisation between [QCUT,QGAM] = [ 11.54, 23.24] = [ 37.28,151.24] Ry 
 Optimized for a Real-space Cutoff    1.45 Angstroem

   l    n(q)    QCUT    max X(q) W(low)/X(q) W(high)/X(q)  e(spline) 
   1     10    11.539     3.658    0.56E-04    0.12E-03    0.13E-06
   1     10    11.539     5.612    0.11E-03    0.23E-03    0.24E-06
   2      9    11.539    55.373    0.45E-04    0.92E-04    0.22E-06
   2      9    11.539    50.863    0.47E-04    0.95E-04    0.22E-06
   0     10    11.539    79.536    0.46E-04    0.27E-04    0.11E-06
   0     10    11.539    38.668    0.38E-04    0.25E-04    0.10E-06
 Optimization of the real space projectors (new method)

 maximal supplied QI-value         = 24.76
 optimisation between [QCUT,QGAM] = [ 11.64, 23.27] = [ 37.91,151.63] Ry 
 Optimized for a Real-space Cutoff    1.14 Angstroem

   l    n(q)    QCUT    max X(q) W(low)/X(q) W(high)/X(q)  e(spline) 
   0      8    11.635    20.381    0.10E-03    0.33E-03    0.24E-06
   0      8    11.635    15.268    0.11E-03    0.35E-03    0.26E-06
   1      7    11.635     5.964    0.24E-03    0.31E-03    0.30E-06
   1      7    11.635     5.382    0.22E-03    0.25E-03    0.26E-06
  PAW_PBE Na_pv 19Sep2006               :
 energy of atom  1       EATOM= -766.0439
 kinetic energy error for atom=    0.0019 (will be added to EATOM!!)
  PAW_PBE Mn_pv 02Aug2007               :
 energy of atom  2       EATOM=-2025.2664
 kinetic energy error for atom=    0.0058 (will be added to EATOM!!)
  PAW_PBE O 08Apr2002                   :
 energy of atom  3       EATOM= -432.3788
 kinetic energy error for atom=    0.0208 (will be added to EATOM!!)
 
 
 POSCAR: Na6 Mn8 O16
  positions in direct lattice
  velocities in cartesian coordinates
 exchange correlation table for  LEXCH =        8
   RHO(1)=    0.500       N(1)  =     2000
   RHO(2)=  100.500       N(2)  =     4000
 


--------------------------------------------------------------------------------------------------------


 ion  position               nearest neighbor table
   1  0.318  0.667  0.250-  21 2.37
   2  0.176  0.324  0.751-
   3  0.822  0.162  0.249-  20 2.36
   4  0.996  0.993  0.495-  17 1.93  14 1.94  15 2.00  16 2.05  12 2.14  19 2.19   5 2.91   5 2.93
                             6 2.97   6 2.99   7 3.02   7 3.03
   5  0.993  0.494  0.498-  14 1.93  15 1.94  17 1.94  13 1.96  18 1.96  16 1.97   4 2.91   4 2.93
                             7 2.97   7 2.99   6 3.01   6 3.04
   6  0.495  0.996  0.504-  12 1.91  19 1.94  14 2.05  13 2.06  17 2.06  18 2.07   7 2.92   7 2.93
                             4 2.97   4 2.99   5 3.01   5 3.04
   7  0.495  0.495  0.493-  12 1.92  15 1.95  13 1.96  19 1.96  18 1.97  16 2.01   6 2.92   6 2.93
                             5 2.97   5 2.99   4 3.02   4 3.03
   8  0.007  0.004  0.008-  27 1.92  26 1.94  21 1.94  24 1.95  20 1.98  23 1.98   9 2.91   9 2.93
                            10 2.98  10 2.98  11 3.02  11 3.03
   9  0.007  0.506  0.003-  27 1.92  26 1.94  21 1.94  25 1.95  20 1.95  22 1.96   8 2.91   8 2.93
                            11 2.97  11 2.99  10 3.02  10 3.03
  10  0.507  0.005  0.994-  24 1.94  23 1.97  25 1.99  22 2.00  26 2.14  21 2.19  11 2.92  11 2.93
                             8 2.98   8 2.98   9 3.02   9 3.03
  11  0.507  0.504  0.004-  25 1.94  22 1.95  24 1.99  23 2.02  27 2.13  20 2.19  10 2.92  10 2.93
                             9 2.97   9 2.99   8 3.02   8 3.03
  12  0.351  0.183  0.586-   6 1.91   7 1.92   4 2.14
  13  0.313  0.637  0.587-   7 1.96   5 1.96   6 2.06
  14  0.843  0.168  0.584-   5 1.93   4 1.94   6 2.05
  15  0.813  0.652  0.580-   5 1.94   7 1.95   4 2.00
  16  0.165  0.340  0.404-   5 1.97   7 2.01   4 2.05
  17  0.158  0.822  0.412-   4 1.93   5 1.94   6 2.06
  18  0.676  0.339  0.407-   5 1.96   7 1.97   6 2.07
  19  0.630  0.822  0.403-   6 1.94   7 1.96   4 2.19
  20  0.144  0.327  0.102-   9 1.95   8 1.98  11 2.19   3 2.36
  21  0.151  0.820  0.097-   9 1.94   8 1.94  10 2.19   1 2.37
  22  0.677  0.335  0.086-  11 1.95   9 1.96  10 2.00
  23  0.672  0.847  0.091-  10 1.97   8 1.98  11 2.02
  24  0.327  0.169  0.919-  10 1.94   8 1.95  11 1.99
  25  0.332  0.659  0.917-  11 1.94   9 1.95  10 1.99
  26  0.876  0.188  0.911-   8 1.94   9 1.94  10 2.14
  27  0.867  0.691  0.915-   9 1.92   8 1.92  11 2.13
 
  LATTYP: Found a triclinic cell.
 ALAT       =     6.0510969385
 B/A-ratio  =     0.9658044903
 C/A-ratio  =     1.8644651620
 COS(alpha) =     0.0033061110
 COS(beta)  =     0.0110348162
 COS(gamma) =     0.4992297159
  
  Lattice vectors:
  
 A1 = (  -6.0506597685,  -0.0645644379,  -0.0334956551)
 A2 = (  -2.9714410913,   5.0323790593,  -0.0099455071)
 A3 = (  -0.0618838448,  -0.0155198830, -11.2818790366)


Analysis of symmetry for initial positions (statically):
=====================================================================
 Subroutine PRICEL returns:
 Original cell was already a primitive cell.
 

 Routine SETGRP: Setting up the symmetry group for a 
 triclinic supercell.


 Subroutine GETGRP returns: Found  1 space group operations
 (whereof  1 operations were pure point group operations)
 out of a pool of  2 trial point group operations.


The static configuration has the point symmetry C_1 .


Analysis of symmetry for dynamics (positions and initial velocities):
=====================================================================
 Subroutine PRICEL returns:
 Original cell was already a primitive cell.
 

 Routine SETGRP: Setting up the symmetry group for a 
 triclinic supercell.


 Subroutine GETGRP returns: Found  1 space group operations
 (whereof  1 operations were pure point group operations)
 out of a pool of  2 trial point group operations.


The dynamic configuration has the point symmetry C_1 .


Analysis of structural, dynamic, and magnetic symmetry:
=====================================================================
 Subroutine PRICEL returns:
 Original cell was already a primitive cell.
 

 Routine SETGRP: Setting up the symmetry group for a 
 triclinic supercell.


 Subroutine GETGRP returns: Found  1 space group operations
 (whereof  1 operations were pure point group operations)
 out of a pool of  2 trial point group operations.


The overall configuration has the point symmetry C_1 .


 Subroutine INISYM returns: Found  1 space group operations
 (whereof  1 operations are pure point group operations),
 and found     1 'primitive' translations


----------------------------------------------------------------------------------------

                                     Primitive cell                                     

  volume of cell :     345.6777

  direct lattice vectors                    reciprocal lattice vectors
    -3.079218677 -5.096943497 -0.023550148    -0.164242150 -0.096977112  0.001034314
    -2.971441091  5.032379059 -0.009945507    -0.166347836  0.100492213  0.000774216
    -0.061883845 -0.015519883-11.281879037     0.000489488  0.000113844 -0.088640558

  length of vectors
     5.954911862  5.844176595 11.282059434     0.190738339  0.194347335  0.088641983

  position of ions in fractional coordinates (direct lattice)
     0.317769177  0.667324999  0.249956784
     0.175571939  0.324085662  0.750784683
     0.821965810  0.161921224  0.249180956
     0.995758314  0.993400716  0.495169898
     0.993073605  0.494156607  0.498349602
     0.495059649  0.995836858  0.504298438
     0.495094133  0.495428602  0.492872785
     0.006870918  0.003915419  0.007565718
     0.006819044  0.506007928  0.002540459
     0.507340913  0.004826564  0.994070789
     0.507482733  0.503830149  0.004285454
     0.350876215  0.182627639  0.586224796
     0.312580305  0.637308638  0.586713510
     0.843332992  0.168003937  0.584441080
     0.813477159  0.651926504  0.579899402
     0.165224334  0.339515044  0.403838161
     0.158135811  0.821740052  0.411741718
     0.676345958  0.338800852  0.407035458
     0.630122087  0.822102388  0.403154337
     0.143942291  0.327303680  0.101539743
     0.151032781  0.820267045  0.096664739
     0.677378507  0.335304445  0.085679738
     0.672307594  0.846828662  0.090940764
     0.326764211  0.168536682  0.918766861
     0.332445516  0.659199738  0.917495590
     0.875786056  0.188364323  0.911290092
     0.867441948  0.691435643  0.915498445

  ion indices of the primitive-cell ions
   primitive index   ion index
                 1           1
                 2           2
                 3           3
                 4           4
                 5           5
                 6           6
                 7           7
                 8           8
                 9           9
                10          10
                11          11
                12          12
                13          13
                14          14
                15          15
                16          16
                17          17
                18          18
                19          19
                20          20
                21          21
                22          22
                23          23
                24          24
                25          25
                26          26
                27          27

----------------------------------------------------------------------------------------

 
 
 KPOINTS: pymatgen with grid density = 1046 / numb

Automatic generation of k-mesh.
 Grid dimensions read from file:
 generate k-points for:    4    4    2

 Generating k-lattice:

  Cartesian coordinates                     Fractional coordinates (reciprocal lattice)
    -0.041060538 -0.024244278  0.000258579     0.250000000  0.000000000  0.000000000
    -0.041586959  0.025123053  0.000193554    -0.000000000  0.250000000 -0.000000000
     0.000244744  0.000056922 -0.044320279    -0.000000000  0.000000000  0.500000000

  Length of vectors
     0.047684585  0.048586834  0.044320992

  Shift w.r.t. Gamma in fractional coordinates (k-lattice)
     0.000000000  0.000000000  0.000000000

 
 Subroutine IBZKPT returns following result:
 ===========================================
 
 Found     20 irreducible k-points:
 
 Following reciprocal coordinates:
            Coordinates               Weight
  0.000000  0.000000  0.000000      1.000000
  0.250000  0.000000 -0.000000      2.000000
  0.500000  0.000000  0.000000      1.000000
 -0.000000  0.250000 -0.000000      2.000000
  0.250000  0.250000  0.000000      2.000000
  0.500000  0.250000 -0.000000      2.000000
 -0.250000  0.250000 -0.000000      2.000000
 -0.000000  0.500000  0.000000      1.000000
  0.250000  0.500000 -0.000000      2.000000
  0.500000  0.500000  0.000000      1.000000
  0.000000 -0.000000  0.500000      1.000000
  0.250000  0.000000  0.500000      2.000000
  0.500000 -0.000000  0.500000      1.000000
  0.000000  0.250000  0.500000      2.000000
  0.250000  0.250000  0.500000      2.000000
  0.500000  0.250000  0.500000      2.000000
 -0.250000  0.250000  0.500000      2.000000
 -0.000000  0.500000  0.500000      1.000000
  0.250000  0.500000  0.500000      2.000000
  0.500000  0.500000  0.500000      1.000000
 
 Following cartesian coordinates:
            Coordinates               Weight
  0.000000  0.000000  0.000000      1.000000
 -0.041061 -0.024244  0.000259      2.000000
 -0.082121 -0.048489  0.000517      1.000000
 -0.041587  0.025123  0.000194      2.000000
 -0.082647  0.000879  0.000452      2.000000
 -0.123708 -0.023366  0.000711      2.000000
 -0.000526  0.049367 -0.000065      2.000000
 -0.083174  0.050246  0.000387      1.000000
 -0.124234  0.026002  0.000646      2.000000
 -0.165295  0.001758  0.000904      1.000000
  0.000245  0.000057 -0.044320      1.000000
 -0.040816 -0.024187 -0.044062      2.000000
 -0.081876 -0.048432 -0.043803      1.000000
 -0.041342  0.025180 -0.044127      2.000000
 -0.082403  0.000936 -0.043868      2.000000
 -0.123463 -0.023309 -0.043610      2.000000
 -0.000282  0.049424 -0.044385      2.000000
 -0.082929  0.050303 -0.043933      1.000000
 -0.123990  0.026059 -0.043675      2.000000
 -0.165050  0.001814 -0.043416      1.000000
 
 
 Subroutine IBZKPT_HF returns following result:
 ==============================================
 
 Found     32 k-points in 1st BZ
 the following     32 k-points will be used (e.g. in the exchange kernel)
 Following reciprocal coordinates:   # in IRBZ
  0.000000  0.000000  0.000000    0.03125000   1 t-inv F
  0.250000  0.000000 -0.000000    0.03125000   2 t-inv F
  0.500000  0.000000  0.000000    0.03125000   3 t-inv F
 -0.000000  0.250000 -0.000000    0.03125000   4 t-inv F
  0.250000  0.250000  0.000000    0.03125000   5 t-inv F
  0.500000  0.250000 -0.000000    0.03125000   6 t-inv F
 -0.250000  0.250000 -0.000000    0.03125000   7 t-inv F
 -0.000000  0.500000  0.000000    0.03125000   8 t-inv F
  0.250000  0.500000 -0.000000    0.03125000   9 t-inv F
  0.500000  0.500000  0.000000    0.03125000  10 t-inv F
  0.000000 -0.000000  0.500000    0.03125000  11 t-inv F
  0.250000  0.000000  0.500000    0.03125000  12 t-inv F
  0.500000 -0.000000  0.500000    0.03125000  13 t-inv F
  0.000000  0.250000  0.500000    0.03125000  14 t-inv F
  0.250000  0.250000  0.500000    0.03125000  15 t-inv F
  0.500000  0.250000  0.500000    0.03125000  16 t-inv F
 -0.250000  0.250000  0.500000    0.03125000  17 t-inv F
 -0.000000  0.500000  0.500000    0.03125000  18 t-inv F
  0.250000  0.500000  0.500000    0.03125000  19 t-inv F
  0.500000  0.500000  0.500000    0.03125000  20 t-inv F
 -0.250000 -0.000000  0.000000    0.03125000   2 t-inv T
  0.000000 -0.250000  0.000000    0.03125000   4 t-inv T
 -0.250000 -0.250000 -0.000000    0.03125000   5 t-inv T
 -0.500000 -0.250000  0.000000    0.03125000   6 t-inv T
  0.250000 -0.250000  0.000000    0.03125000   7 t-inv T
 -0.250000 -0.500000  0.000000    0.03125000   9 t-inv T
 -0.250000 -0.000000 -0.500000    0.03125000  12 t-inv T
 -0.000000 -0.250000 -0.500000    0.03125000  14 t-inv T
 -0.250000 -0.250000 -0.500000    0.03125000  15 t-inv T
 -0.500000 -0.250000 -0.500000    0.03125000  16 t-inv T
  0.250000 -0.250000 -0.500000    0.03125000  17 t-inv T
 -0.250000 -0.500000 -0.500000    0.03125000  19 t-inv T


--------------------------------------------------------------------------------------------------------




 Dimension of arrays:
   k-points           NKPTS =     20   k-points in BZ     NKDIM =     32   number of bands    NBANDS=    192
   number of dos      NEDOS =    301   number of ions     NIONS =     27
   non local maximal  LDIM  =      6   non local SUM 2l+1 LMDIM =     18
   total plane-waves  NPLWV = 193536
   max r-space proj   IRMAX =   7137   max aug-charges    IRDMAX=  17186
   dimension x,y,z NGX =    48 NGY =   48 NGZ =   84
   dimension x,y,z NGXF=    96 NGYF=   96 NGZF=  168
   support grid    NGXF=    96 NGYF=   96 NGZF=  168
   ions per type =               3   8  16
   NGX,Y,Z   is equivalent  to a cutoff of  13.40, 13.65, 12.38 a.u.
   NGXF,Y,Z  is equivalent  to a cutoff of  26.80, 27.31, 24.76 a.u.

 SYSTEM =  unknown system                          
 POSCAR =  Na6 Mn8 O16                             

 Startparameter for this run:
   NWRITE =      2    write-flag & timer
   PREC   = accura    normal or accurate (medium, high low for compatibility)
   ISTART =      0    job   : 0-new  1-cont  2-samecut
   ICHARG =      1    charge: 1-file 2-atom 10-const
   ISPIN  =      2    spin polarized calculation?
   LNONCOLLINEAR =      F non collinear calculations
   LSORBIT =      F    spin-orbit coupling
   INIWAV =      1    electr: 0-lowe 1-rand  2-diag
   LASPH  =      F    aspherical Exc in radial PAW
 Electronic Relaxation 1
   ENCUT  =  520.0 eV  38.22 Ry    6.18 a.u.  11.07 10.87 20.98*2*pi/ulx,y,z
   ENINI  =  520.0     initial cutoff
   ENAUG  =  605.4 eV  augmentation charge cutoff
   NELM   =    100;   NELMIN=  2; NELMDL=  0     # of ELM steps 
   EDIFF  = 0.1E-02   stopping-criterion for ELM
   LREAL  =      T    real-space projection
   NLSPLINE    = F    spline interpolate recip. space projectors
   LCOMPAT=      F    compatible to vasp.4.4
   GGA_COMPAT  = T    GGA compatible to vasp.4.4-vasp.4.6
   LMAXPAW     = -100 max onsite density
   LMAXMIX     =    4 max onsite mixed and CHGCAR
   VOSKOWN=      0    Vosko Wilk Nusair interpolation
   ROPT   =   -0.00025  -0.00025  -0.00025
 Ionic relaxation
   EDIFFG = 0.1E-01   stopping-criterion for IOM
   NSW    =     99    number of steps for IOM
   NBLOCK =      1;   KBLOCK =     99    inner block; outer block 
   IBRION =      2    ionic relax: 0-MD 1-quasi-New 2-CG
   NFREE  =      1    steps in history (QN), initial steepest desc. (CG)
   ISIF   =      3    stress and relaxation
   IWAVPR =     11    prediction:  0-non 1-charg 2-wave 3-comb
   ISYM   =      3    0-nonsym 1-usesym 2-fastsym
   LCORR  =      T    Harris-Foulkes like correction to forces

   POTIM  = 0.5000    time-step for ionic-motion
   TEIN   =    0.0    initial temperature
   TEBEG  =    0.0;   TEEND  =   0.0 temperature during run
   SMASS  =  -3.00    Nose mass-parameter (am)
   estimated Nose-frequenzy (Omega)   =  0.10E-29 period in steps = 0.13E+47 mass=  -0.810E-27a.u.
   SCALEE = 1.0000    scale energy and forces
   NPACO  =    256;   APACO  = 10.0  distance and # of slots for P.C.
   PSTRESS=    0.0 pullay stress

  Mass of Ions in am
   POMASS =  22.99 54.94 16.00
  Ionic Valenz
   ZVAL   =   7.00 13.00  6.00
  Atomic Wigner-Seitz radii
   RWIGS  =  -1.00 -1.00 -1.00
  virtual crystal weights 
   VCA    =   1.00  1.00  1.00
   NELECT =     221.0000    total number of electrons
   NUPDOWN=      -1.0000    fix difference up-down

 DOS related values:
   EMIN   =  10.00;   EMAX   =-10.00  energy-range for DOS
   EFERMI =   0.00;   METHOD = LEGACY      
   ISMEAR =     0;   SIGMA  =   0.05  broadening in eV -4-tet -1-fermi 0-gaus

 Electronic relaxation 2 (details)
   IALGO  =     58    algorithm
   LDIAG  =      T    sub-space diagonalisation (order eigenvalues)
   LSUBROT=      F    optimize rotation matrix (better conditioning)
   TURBO    =      0    0=normal 1=particle mesh
   IRESTART =      0    0=no restart 2=restart with 2 vectors
   NREBOOT  =      0    no. of reboots
   NMIN     =      0    reboot dimension
   EREF     =   0.00    reference energy to select bands
   IMIX   =      4    mixing-type and parameters
     AMIX     =   0.40;   BMIX     =  1.00
     AMIX_MAG =   1.60;   BMIX_MAG =  1.00
     AMIN     =   0.10
     WC   =   100.;   INIMIX=   1;  MIXPRE=   1;  MAXMIX= -45

 Intra band minimization:
   WEIMIN = 0.0010     energy-eigenvalue tresh-hold
   EBREAK =  0.18E-05  absolut break condition
   DEPER  =   0.30     relativ break condition  

   TIME   =   0.40     timestep for ELM

  volume/ion in A,a.u.               =      12.80        86.40
  Fermi-wavevector in a.u.,A,eV,Ry     =   1.410312  2.665103 27.061707  1.988979
  Thomas-Fermi vector in A             =   2.532278
 
 Write flags
   LWAVE        =      F    write WAVECAR
   LDOWNSAMPLE  =      F    k-point downsampling of WAVECAR
   LCHARG       =      T    write CHGCAR
   LVTOT        =      F    write LOCPOT, total local potential
   LVHAR        =      F    write LOCPOT, Hartree potential only
   LELF         =      F    write electronic localiz. function (ELF)
   LORBIT       =     11    0 simple, 1 ext, 2 COOP (PROOUT), +10 PAW based schemes


 Dipole corrections
   LMONO  =      F    monopole corrections only (constant potential shift)
   LDIPOL =      F    correct potential (dipole corrections)
   IDIPOL =      0    1-x, 2-y, 3-z, 4-all directions 
   EPSILON=  1.0000000 bulk dielectric constant

 Exchange correlation treatment:
   GGA     =    --    GGA type
   LEXCH   =     8    internal setting for exchange type
   LIBXC   =     F    Libxc                    
   VOSKOWN =     0    Vosko Wilk Nusair interpolation
   EXXOEP  =     0    0=HF, 1=EXX-LHF (local Hartree Fock) 2=EXX OEP
   LHFCALC =     T    Hartree Fock is set to
   LSYMGRAD=     F    symmetrize gradient (conserves proper symmetry)
   PRECFOCK=fast      Normal, Fast or Accurate (Low or Medium for compatibility)
   LRHFCALC=     F    long range Hartree Fock
   LRSCOR  =     F    long range correlation only (use DFT for short range part)
   LTHOMAS =     F    Thomas Fermi screening in HF
   LMODELHF=     F    short range full HF, long range fraction AEXX
   FOCKCORR=     1    mode to apply convergence corrections
   LFOCKACE=     T    use Adeptively-Compressed-Exchange operator
   ENCUT4O =  -1.0   cutoff for four orbital integrals eV
   LMAXFOCK=     4    L truncation for augmentation on plane wave grid
   LMAXFOCKAE=  -1    L truncation for all-electron charge restoration on plane wave grid
   NMAXFOCKAE=   1    number of basis functions for all-electron charge restoration
   LFOCKAEDFT=     F  apply the AE augmentation even for DFT
   NKREDX  =     1    reduce k-point grid by
   NKREDY  =     1    reduce k-point grid by
   NKREDZ  =     1    reduce k-point grid by
   SHIFTRED=     F    shift reduced grid of Gamma
   HFKIDENT=     F    idential grid for each k-point
   ODDONLY =     F    use only odd q-grid points
   EVENONLY=     F    use only even q-grid points
   HFALPHA =   -1.0000 decay constant for conv. correction
   MCALPHA =    0.0000 extent of test-charge in conv. correction in multipole expansion
   AEXX    =    0.2500 exact exchange contribution
   HFSCREEN=    0.2000 screening length (either q_TF or 0.3 A-1)
   HFSCREENC=   0.2000 screening length for correlation (either q_TF or 0.3 A-1)
   HFRCUT  =    0.0000 spherical cutoff for potential kernel
   ALDAX   =    0.7500 LDA exchange part
   AGGAX   =    0.7500 GGA exchange part
   ALDAC   =    1.0000 LDA correlation
   AGGAC   =    1.0000 GGA correlation
   ENCUTFOCK=  -1.0 apply spherical cutoff to Coloumb kernel
   NBANDSGWLOW=     1    first orbital included in HF term
   NBLOCK_FOCK=    64    blocking factor in FOCK_ACC

 Linear response parameters
   LEPSILON=     F    determine dielectric tensor
   LRPA    =     F    only Hartree local field effects (RPA)
   LNABLA  =     F    use nabla operator in PAW spheres
   LVEL    =     F    velocity operator in full k-point grid
   CSHIFT  =0.1000    complex shift for real part using Kramers Kronig
   OMEGAMAX=  -1.0    maximum frequency
   DEG_THRESHOLD= 0.2000000E-02 threshold for treating states as degnerate
   RTIME   =   -0.100 relaxation time in fs
  (WPLASMAI=    0.000 imaginary part of plasma frequency in eV, 0.658/RTIME)
   DFIELD  = 0.0000000 0.0000000 0.0000000 field for delta impulse in time
 
  Optional k-point grid parameters
   LKPOINTS_OPT  =     F    use optional k-point grid
   KPOINTS_OPT_MODE=     1    mode for optional k-point grid
 
 Orbital magnetization related:
   ORBITALMAG=     F  switch on orbital magnetization
   LCHIMAG   =     F  perturbation theory with respect to B field
   DQ        =  0.001000  dq finite difference perturbation B field
   LLRAUG    =     F  two centre corrections for induced B field
   LBONE     =     F  B-component reconstruction in AE one-centre
   LVGVCALC  =     T  calculate vGv susceptibility
   LVGVAPPL  =     F  apply vGv susceptibility instead of pGv for G=0

 Random number generation:
   RANDOM_GENERATOR = DEFAULT
   PCG_SEED         = not used


--------------------------------------------------------------------------------------------------------


 conjugate gradient relaxation of ions
 charge density and potential will be updated during run
 spin polarized calculation
 Conjugate gradient for all bands (Freysoldt, et al. PRB 79, 241103 (2009))
 preconditioned conjugated gradient                                        
 perform sub-space diagonalisation
    before iterative eigenvector-optimisation
 modified Broyden-mixing scheme, WC =      100.0
 initial mixing is a Kerker type mixing with AMIX =  0.4000 and BMIX =      1.0000
 Hartree-type preconditioning will be used
 using additional bands           81
 real space projection scheme for non local part
 use partial core corrections
 no Harris-corrections to forces 
 use gradient corrections 
 use of overlap-Matrix (Vanderbilt PP)
 Gauss-broadening in eV      SIGMA  =   0.05


--------------------------------------------------------------------------------------------------------


  energy-cutoff  :      520.00
  volume of cell :      345.68
      direct lattice vectors                 reciprocal lattice vectors
    -3.079218677 -5.096943497 -0.023550148    -0.164242150 -0.096977112  0.001034314
    -2.971441091  5.032379059 -0.009945507    -0.166347836  0.100492213  0.000774216
    -0.061883845 -0.015519883-11.281879037     0.000489488  0.000113844 -0.088640558

  length of vectors
     5.954911862  5.844176595 11.282059434     0.190738339  0.194347335  0.088641983


 
 k-points in units of 2pi/SCALE and weight: pymatgen with grid density = 1046 / numb
   0.00000000  0.00000000  0.00000000       0.031
  -0.04106054 -0.02424428  0.00025858       0.062
  -0.08212108 -0.04848856  0.00051716       0.031
  -0.04158696  0.02512305  0.00019355       0.062
  -0.08264750  0.00087878  0.00045213       0.062
  -0.12370803 -0.02336550  0.00071071       0.062
  -0.00052642  0.04936733 -0.00006502       0.062
  -0.08317392  0.05024611  0.00038711       0.031
  -0.12423446  0.02600183  0.00064569       0.062
  -0.16529499  0.00175755  0.00090427       0.031
   0.00024474  0.00005692 -0.04432028       0.031
  -0.04081579 -0.02418736 -0.04406170       0.062
  -0.08187633 -0.04843163 -0.04380312       0.031
  -0.04134222  0.02517998 -0.04412673       0.062
  -0.08240275  0.00093570 -0.04386815       0.062
  -0.12346329 -0.02330858 -0.04360957       0.062
  -0.00028168  0.04942425 -0.04438530       0.062
  -0.08292917  0.05030303 -0.04393317       0.031
  -0.12398971  0.02605875 -0.04367459       0.062
  -0.16505025  0.00181447 -0.04341601       0.031
 
 k-points in reciprocal lattice and weights: pymatgen with grid density = 1046 / numb
   0.00000000  0.00000000  0.00000000       0.031
   0.25000000  0.00000000 -0.00000000       0.062
   0.50000000  0.00000000  0.00000000       0.031
  -0.00000000  0.25000000 -0.00000000       0.062
   0.25000000  0.25000000  0.00000000       0.062
   0.50000000  0.25000000 -0.00000000       0.062
  -0.25000000  0.25000000 -0.00000000       0.062
  -0.00000000  0.50000000  0.00000000       0.031
   0.25000000  0.50000000 -0.00000000       0.062
   0.50000000  0.50000000  0.00000000       0.031
   0.00000000 -0.00000000  0.50000000       0.031
   0.25000000  0.00000000  0.50000000       0.062
   0.50000000 -0.00000000  0.50000000       0.031
   0.00000000  0.25000000  0.50000000       0.062
   0.25000000  0.25000000  0.50000000       0.062
   0.50000000  0.25000000  0.50000000       0.062
  -0.25000000  0.25000000  0.50000000       0.062
  -0.00000000  0.50000000  0.50000000       0.031
   0.25000000  0.50000000  0.50000000       0.062
   0.50000000  0.50000000  0.50000000       0.031
 
 position of ions in fractional coordinates (direct lattice) 
   0.31776918  0.66732500  0.24995678
   0.17557194  0.32408566  0.75078468
   0.82196581  0.16192122  0.24918096
   0.99575831  0.99340072  0.49516990
   0.99307361  0.49415661  0.49834960
   0.49505965  0.99583686  0.50429844
   0.49509413  0.49542860  0.49287278
   0.00687092  0.00391542  0.00756572
   0.00681904  0.50600793  0.00254046
   0.50734091  0.00482656  0.99407079
   0.50748273  0.50383015  0.00428545
   0.35087621  0.18262764  0.58622480
   0.31258031  0.63730864  0.58671351
   0.84333299  0.16800394  0.58444108
   0.81347716  0.65192650  0.57989940
   0.16522433  0.33951504  0.40383816
   0.15813581  0.82174005  0.41174172
   0.67634596  0.33880085  0.40703546
   0.63012209  0.82210239  0.40315434
   0.14394229  0.32730368  0.10153974
   0.15103278  0.82026704  0.09666474
   0.67737851  0.33530445  0.08567974
   0.67230759  0.84682866  0.09094076
   0.32676421  0.16853668  0.91876686
   0.33244552  0.65919974  0.91749559
   0.87578606  0.18836432  0.91129009
   0.86744195  0.69143564  0.91549845
 
 position of ions in cartesian coordinates  (Angst):
  -2.97686599  1.73470151 -2.83410259
  -1.55008729  0.72438955 -8.47761992
  -3.02757213 -3.37853157 -2.83219721
  -6.04863232 -0.08383988 -5.61977702
  -4.55708783 -2.58259102 -5.65062160
  -4.51467540  2.48031084 -5.71099681
  -3.02714087 -0.03793163 -5.57711797
  -0.03325969 -0.01543423 -0.08555627
  -1.52472729  2.51162799 -0.03385424
  -1.63807239 -2.57702673-11.22698235
  -3.06001712 -0.05121304 -0.06531012
  -1.65936971 -0.87844288 -6.62379675
  -2.89253627  1.60486876 -6.63293052
  -3.13218796 -3.46203157 -6.61512507
  -4.47792167 -0.87450580 -6.56799616
  -1.54260187  0.86016178 -4.56332099
  -2.95416706  3.32290795 -4.65711700
  -3.11453280 -1.74863996 -4.61142239
  -4.40806126  0.91917726 -4.57135416
  -1.42207706  0.91187458 -1.15220416
  -2.90842015  3.35658892 -1.10227470
  -3.08743615 -1.76651065 -0.98591558
  -4.59211135  0.83343762 -1.05023778
  -1.56383211 -0.83161740-10.37478812
  -3.03922379  1.60864752-10.36545948
  -3.31284440 -3.53005449-10.30356285
  -4.78225829 -0.95594477-10.35584778
 


--------------------------------------------------------------------------------------------------------


 k-point   1 :   0.0000 0.0000 0.0000  plane waves:    9307
 k-point   2 :   0.2500 0.0000-0.0000  plane waves:    9290
 k-point   3 :   0.5000 0.0000 0.0000  plane waves:    9318
 k-point   4 :  -0.0000 0.2500-0.0000  plane waves:    9291
 k-point   5 :   0.2500 0.2500 0.0000  plane waves:    9301
 k-point   6 :   0.5000 0.2500-0.0000  plane waves:    9315
 k-point   7 :  -0.2500 0.2500-0.0000  plane waves:    9301
 k-point   8 :  -0.0000 0.5000 0.0000  plane waves:    9300
 k-point   9 :   0.2500 0.5000-0.0000  plane waves:    9311
 k-point  10 :   0.5000 0.5000 0.0000  plane waves:    9312
 k-point  11 :   0.0000-0.0000 0.5000  plane waves:    9278
 k-point  12 :   0.2500 0.0000 0.5000  plane waves:    9298
 k-point  13 :   0.5000-0.0000 0.5000  plane waves:    9308
 k-point  14 :   0.0000 0.2500 0.5000  plane waves:    9301
 k-point  15 :   0.2500 0.2500 0.5000  plane waves:    9315
 k-point  16 :   0.5000 0.2500 0.5000  plane waves:    9303
 k-point  17 :  -0.2500 0.2500 0.5000  plane waves:    9324
 k-point  18 :  -0.0000 0.5000 0.5000  plane waves:    9292
 k-point  19 :   0.2500 0.5000 0.5000  plane waves:    9320
 k-point  20 :   0.5000 0.5000 0.5000  plane waves:    9324

 maximum and minimum number of plane-waves per node :      9324     9278

 maximum number of plane-waves:      9324
 maximum index in each direction: 
   IXMAX=   11   IYMAX=   10   IZMAX=   20
   IXMIN=  -11   IYMIN=  -11   IZMIN=  -21


 serial   3D FFT for wavefunctions
 parallel 3D FFT for charge:
    minimum data exchange during FFTs selected (reduces bandwidth)


 FFT grid for exact exchange (Hartree Fock) 
  NGX = 24; NGY = 24; NGZ = 48

 
 Radii for the augmentation spheres in the non-local exchange
 for species   1 augmentation radius   1.249 (default was   0.925)
       energy cutoff for augmentation   2080.0
 for species   2 augmentation radius   1.293 (default was   0.958)
       energy cutoff for augmentation   2080.0
 for species   3 augmentation radius   0.974 (default was   0.722)
       energy cutoff for augmentation   2080.0
 Maximum index for augmentation-charges in exchange          723
  SETUP_FOCK is finished

 total amount of memory used by VASP MPI-rank0   126363. kBytes
=======================================================================

   base      :      30000. kBytes
   nonlr-proj:      19416. kBytes
   fftplans  :       1830. kBytes
   grid      :      18422. kBytes
   one-center:        839. kBytes
   HF        :        194. kBytes
   wavefun   :      55662. kBytes
 
     INWAV:  cpu time      0.0000: real time      0.0001
 Broyden mixing: mesh for mixing (old mesh)
   NGX = 23   NGY = 21   NGZ = 41
  (NGX  = 96   NGY  = 96   NGZ  =168)
  gives a total of  19803 points

 initial charge density was supplied:
 charge density of overlapping atoms calculated
 number of electron     221.0000000 magnetization      35.4000000
 charge density for first step will be calculated from the start-wavefunctions


--------------------------------------------------------------------------------------------------------


 Maximum index for non-local projection operator         6893
 Maximum index for augmentation-charges          705 (set IRDMAX)


--------------------------------------------------------------------------------------------------------


 First call to EWALD:  gamma=   0.253
 Maximum number of real-space cells 4x 4x 2
 Maximum number of reciprocal cells 2x 2x 4

    FEWALD:  cpu time      0.0015: real time      0.0015


--------------------------------------- Ionic step        1  -------------------------------------------




--------------------------------------- Iteration      1(   1)  ---------------------------------------


    POTLOK:  cpu time      0.0520: real time      0.0542
    SETDIJ:  cpu time      0.0133: real time      0.0136
    TRIAL :  cpu time     12.0953: real time     12.1676
    CORREC:  cpu time      0.0013: real time      0.0013
    --------------------------------------------
      LOOP:  cpu time     12.1918: real time     12.2694

 eigenvalue-minimisations  : 15360
 total energy-change (2. order) :-0.8283386E+03  (-0.1365499E+05)
 number of electron     221.0000000 magnetization      35.4000000
 augmentation part      221.0000000 magnetization      35.4000000

 Free energy of the ion-electron system (eV)
  ---------------------------------------------------
  alpha Z        PSCENC =       794.86570411
  Ewald energy   TEWEN  =    -12640.55578209
  -Hartree energ DENC   =    -11097.46727935
  -exchange      EXHF   =         0.00000000
  -V(xc)+E(xc)   XCENC  =      1070.78738374
  PAW double counting   =     20214.75774595   -23688.84746502
  entropy T*S    EENTRO =        -0.01767901
  eigenvalues    EBANDS =      -803.19886939
  atomic energy  EATOM  =     25321.33763079
  ---------------------------------------------------
  free energy    TOTEN  =      -828.33861027 eV

  energy without entropy =     -828.32093126  energy(sigma->0) =     -828.32977076
  exchange ACFDT corr.  =         0.00000000  see jH, gK, PRB 81, 115126


--------------------------------------------------------------------------------------------------------




--------------------------------------- Iteration      1(   2)  ---------------------------------------


    TRIAL :  cpu time     13.2644: real time     13.3249
    CORREC:  cpu time      0.0008: real time      0.0008
    --------------------------------------------
      LOOP:  cpu time     13.2659: real time     13.3266

 eigenvalue-minimisations  : 16960
 total energy-change (2. order) :-0.2394258E+04  (-0.2224957E+04)
 number of electron     221.0000000 magnetization      35.4000000
 augmentation part      221.0000000 magnetization      35.4000000

 Free energy of the ion-electron system (eV)
  ---------------------------------------------------
  alpha Z        PSCENC =       794.86570411
  Ewald energy   TEWEN  =    -12640.55578209
  -Hartree energ DENC   =    -11097.46727935
  -exchange      EXHF   =         0.00000000
  -V(xc)+E(xc)   XCENC  =      1070.78738374
  PAW double counting   =     20214.75774595   -23688.84746502
  entropy T*S    EENTRO =        -0.01034196
  eigenvalues    EBANDS =     -3197.46402055
  atomic energy  EATOM  =     25321.33763079
  ---------------------------------------------------
  free energy    TOTEN  =     -3222.59642438 eV

  energy without entropy =    -3222.58608242  energy(sigma->0) =    -3222.59125340
  exchange ACFDT corr.  =         0.00000000  see jH, gK, PRB 81, 115126


--------------------------------------------------------------------------------------------------------




--------------------------------------- Iteration      1(   3)  ---------------------------------------


    TRIAL :  cpu time     18.4346: real time     18.4940
    CORREC:  cpu time      0.0008: real time      0.0008
    --------------------------------------------
      LOOP:  cpu time     18.4357: real time     18.4951

 eigenvalue-minimisations  : 19904
 total energy-change (2. order) :-0.1569681E+03  (-0.1557097E+03)
 number of electron     221.0000000 magnetization      35.4000000
 augmentation part      221.0000000 magnetization      35.4000000

 Free energy of the ion-electron system (eV)
  ---------------------------------------------------
  alpha Z        PSCENC =       794.86570411
  Ewald energy   TEWEN  =    -12640.55578209
  -Hartree energ DENC   =    -11097.46727935
  -exchange      EXHF   =         0.00000000
  -V(xc)+E(xc)   XCENC  =      1070.78738374
  PAW double counting   =     20214.75774595   -23688.84746502
  entropy T*S    EENTRO =        -0.00826956
  eigenvalues    EBANDS =     -3354.43414899
  atomic energy  EATOM  =     25321.33763079
  ---------------------------------------------------
  free energy    TOTEN  =     -3379.56448041 eV

  energy without entropy =    -3379.55621085  energy(sigma->0) =    -3379.56034563
  exchange ACFDT corr.  =         0.00000000  see jH, gK, PRB 81, 115126


--------------------------------------------------------------------------------------------------------




--------------------------------------- Iteration      1(   4)  ---------------------------------------


    TRIAL :  cpu time     12.5581: real time     12.5980
    CORREC:  cpu time      0.0008: real time      0.0008
    --------------------------------------------
      LOOP:  cpu time     12.5592: real time     12.5990

 eigenvalue-minimisations  : 16000
 total energy-change (2. order) :-0.1851656E+01  (-0.1851536E+01)
 number of electron     221.0000000 magnetization      35.4000000
 augmentation part      221.0000000 magnetization      35.4000000

 Free energy of the ion-electron system (eV)
  ---------------------------------------------------
  alpha Z        PSCENC =       794.86570411
  Ewald energy   TEWEN  =    -12640.55578209
  -Hartree energ DENC   =    -11097.46727935
  -exchange      EXHF   =         0.00000000
  -V(xc)+E(xc)   XCENC  =      1070.78738374
  PAW double counting   =     20214.75774595   -23688.84746502
  entropy T*S    EENTRO =        -0.00822819
  eigenvalues    EBANDS =     -3356.28584625
  atomic energy  EATOM  =     25321.33763079
  ---------------------------------------------------
  free energy    TOTEN  =     -3381.41613630 eV

  energy without entropy =    -3381.40790811  energy(sigma->0) =    -3381.41202221
  exchange ACFDT corr.  =         0.00000000  see jH, gK, PRB 81, 115126


--------------------------------------------------------------------------------------------------------




--------------------------------------- Iteration      1(   5)  ---------------------------------------


    POTLOK:  cpu time      0.0940: real time      0.0943
    SETDIJ:  cpu time      0.0684: real time      0.0686
    TRIAL :  cpu time    622.8377: real time    624.8720
    CORREC:  cpu time      0.0006: real time      0.0006
    CHARGE:  cpu time      0.4248: real time      0.4267
    --------------------------------------------
      LOOP:  cpu time    623.4258: real time    625.4625

 eigenvalue-minimisations  : 16896
 total energy-change (2. order) : 0.3037168E+04  (-0.2885680E+01)
 number of electron     221.0000028 magnetization      27.0000012
 augmentation part       77.2641294 magnetization      17.2245116

 Free energy of the ion-electron system (eV)
  ---------------------------------------------------
  alpha Z        PSCENC =       794.86570411
  Ewald energy   TEWEN  =    -12640.55578209
  -Hartree energ DENC   =    -11097.46727935
  -exchange      EXHF   =       703.84402509
  -V(xc)+E(xc)   XCENC  =       817.45882517
  PAW double counting   =     20458.22491388   -21031.31602309
  entropy T*S    EENTRO =        -0.00000000
  eigenvalues    EBANDS =     -3670.63986645
  atomic energy  EATOM  =     25321.33763079
  ---------------------------------------------------
  free energy    TOTEN  =      -344.24785194 eV

  energy without entropy =     -344.24785194  energy(sigma->0) =     -344.24785194
  exchange ACFDT corr.  =        -0.04934412  see jH, gK, PRB 81, 115126


--------------------------------------------------------------------------------------------------------




--------------------------------------- Iteration      1(   6)  ---------------------------------------


    POTLOK:  cpu time      0.0968: real time      0.0970
    SETDIJ:  cpu time      0.0664: real time      0.0665
    TRIAL :  cpu time    601.4203: real time    602.9993
    CORREC:  cpu time    588.2140: real time    589.7457
    CHARGE:  cpu time      0.4317: real time      0.4328
    --------------------------------------------
      LOOP:  cpu time   1190.2302: real time   1193.3592

 eigenvalue-minimisations  :     0
 total energy-change (2. order) : 0.2960368E+03  (-0.1589575E+03)
 number of electron     221.0000029 magnetization      27.0000013
 augmentation part       81.3440937 magnetization      19.6212749

 Free energy of the ion-electron system (eV)
  ---------------------------------------------------
  alpha Z        PSCENC =       794.86570411
  Ewald energy   TEWEN  =    -12640.55578209
  -Hartree energ DENC   =    -10288.03182000
  -exchange      EXHF   =       708.87672112
  -V(xc)+E(xc)   XCENC  =       826.74647713
  PAW double counting   =     24284.33914831   -24859.28503472
  entropy T*S    EENTRO =        -0.00000000
  eigenvalues    EBANDS =     -4196.50408791
  atomic energy  EATOM  =     25321.33763079
  ---------------------------------------------------
  free energy    TOTEN  =       -48.21104325 eV

  energy without entropy =      -48.21104325  energy(sigma->0) =      -48.21104325
  exchange ACFDT corr.  =         0.00000000  see jH, gK, PRB 81, 115126


--------------------------------------------------------------------------------------------------------




--------------------------------------- Iteration      1(   7)  ---------------------------------------


    POTLOK:  cpu time      0.0951: real time      0.0953
    SETDIJ:  cpu time      0.0657: real time      0.0659
    TRIAL :  cpu time    596.3508: real time    598.1105
    CORREC:  cpu time    596.3698: real time    598.4272
    CHARGE:  cpu time      0.4304: real time      0.4314
    --------------------------------------------
      LOOP:  cpu time   1193.3201: real time   1197.1542

 eigenvalue-minimisations  :     0
 total energy-change (2. order) :-0.1593647E+03  (-0.3221341E+02)
 number of electron     221.0000028 magnetization      27.0000014
 augmentation part       80.7487657 magnetization      20.0111485

 Free energy of the ion-electron system (eV)
  ---------------------------------------------------
  alpha Z        PSCENC =       794.86570411
  Ewald energy   TEWEN  =    -12640.55578209
  -Hartree energ DENC   =    -10585.98351599
  -exchange      EXHF   =       688.26740675
  -V(xc)+E(xc)   XCENC  =       821.88275207
  PAW double counting   =     27443.36960999   -28129.70225400
  entropy T*S    EENTRO =        -0.01107582
  eigenvalues    EBANDS =     -3921.05731078
  atomic energy  EATOM  =     25321.33763079
  ---------------------------------------------------
  free energy    TOTEN  =      -207.57575914 eV

  energy without entropy =     -207.56468333  energy(sigma->0) =     -207.57022123
  exchange ACFDT corr.  =        -1.34299488  see jH, gK, PRB 81, 115126


--------------------------------------------------------------------------------------------------------




--------------------------------------- Iteration      1(   8)  ---------------------------------------


    POTLOK:  cpu time      0.0949: real time      0.0951
    SETDIJ:  cpu time      0.0667: real time      0.0669
    TRIAL :  cpu time    601.3122: real time    602.9663
    CORREC:  cpu time    593.3308: real time    594.9715
    CHARGE:  cpu time      0.4266: real time      0.4276
    --------------------------------------------
      LOOP:  cpu time   1195.2318: real time   1198.5280

 eigenvalue-minimisations  :     0
 total energy-change (2. order) :-0.3332493E+02  (-0.1265087E+02)
 number of electron     221.0000028 magnetization      27.0000013
 augmentation part       80.2319321 magnetization      19.9933649

 Free energy of the ion-electron system (eV)
  ---------------------------------------------------
  alpha Z        PSCENC =       794.86570411
  Ewald energy   TEWEN  =    -12640.55578209
  -Hartree energ DENC   =    -10713.47373963
  -exchange      EXHF   =       675.65846125
  -V(xc)+E(xc)   XCENC  =       816.52619355
  PAW double counting   =     28119.33423365   -28787.08214117
  entropy T*S    EENTRO =        -0.00343772
  eigenvalues    EBANDS =     -3827.50016910
  atomic energy  EATOM  =     25321.33763079
  ---------------------------------------------------
  free energy    TOTEN  =      -240.90068444 eV

  energy without entropy =     -240.89724672  energy(sigma->0) =     -240.89896558
  exchange ACFDT corr.  =        -1.00630395  see jH, gK, PRB 81, 115126


--------------------------------------------------------------------------------------------------------




--------------------------------------- Iteration      1(   9)  ---------------------------------------


    POTLOK:  cpu time      0.1102: real time      0.1105
    SETDIJ:  cpu time      0.0656: real time      0.0657
    TRIAL :  cpu time    600.1722: real time    602.3953
    CORREC:  cpu time    596.4623: real time    598.3156
    CHARGE:  cpu time      0.4282: real time      0.4292
    --------------------------------------------
      LOOP:  cpu time   1197.2474: real time   1201.3818

 eigenvalue-minimisations  :     0
 total energy-change (2. order) :-0.1143834E+02  (-0.9474762E+01)
 number of electron     221.0000027 magnetization      27.0000013
 augmentation part       80.3445132 magnetization      19.6625403

 Free energy of the ion-electron system (eV)
  ---------------------------------------------------
  alpha Z        PSCENC =       794.86570411
  Ewald energy   TEWEN  =    -12640.55578209
  -Hartree energ DENC   =    -10797.15195749
  -exchange      EXHF   =       671.86457678
  -V(xc)+E(xc)   XCENC  =       815.49486830
  PAW double counting   =     27788.55962860   -28430.60534918
  entropy T*S    EENTRO =        -0.00199589
  eigenvalues    EBANDS =     -3776.14490505
  atomic energy  EATOM  =     25321.33763079
  ---------------------------------------------------
  free energy    TOTEN  =      -252.33902296 eV

  energy without entropy =     -252.33702707  energy(sigma->0) =     -252.33802501
  exchange ACFDT corr.  =        -0.09074878  see jH, gK, PRB 81, 115126


--------------------------------------------------------------------------------------------------------




--------------------------------------- Iteration      1(  10)  ---------------------------------------


    POTLOK:  cpu time      0.0936: real time      0.0939
    SETDIJ:  cpu time      0.0667: real time      0.0669
    TRIAL :  cpu time    596.8548: real time    598.5093
    CORREC:  cpu time    600.4182: real time    602.4492
    CHARGE:  cpu time      0.4293: real time      0.4303
    --------------------------------------------
      LOOP:  cpu time   1197.8632: real time   1201.5500

 eigenvalue-minimisations  :     0
 total energy-change (2. order) :-0.9455931E+01  (-0.1825324E+01)
 number of electron     221.0000028 magnetization      27.0000013
 augmentation part       80.6122766 magnetization      19.5154226

 Free energy of the ion-electron system (eV)
  ---------------------------------------------------
  alpha Z        PSCENC =       794.86570411
  Ewald energy   TEWEN  =    -12640.55578209
  -Hartree energ DENC   =    -10875.52710040
  -exchange      EXHF   =       672.84485139
  -V(xc)+E(xc)   XCENC  =       818.39877613
  PAW double counting   =     26899.21863525   -27523.89995707
  entropy T*S    EENTRO =        -0.00894301
  eigenvalues    EBANDS =     -3728.47571630
  atomic energy  EATOM  =     25321.33763079
  ---------------------------------------------------
  free energy    TOTEN  =      -261.79495407 eV

  energy without entropy =     -261.78601107  energy(sigma->0) =     -261.79048257
  exchange ACFDT corr.  =        -0.05458410  see jH, gK, PRB 81, 115126


--------------------------------------------------------------------------------------------------------




--------------------------------------- Iteration      1(  11)  ---------------------------------------


    POTLOK:  cpu time      0.0934: real time      0.0936
    SETDIJ:  cpu time      0.0666: real time      0.0668
    TRIAL :  cpu time    606.6187: real time    608.5177
    CORREC:  cpu time    596.2320: real time    598.7065
    CHARGE:  cpu time      0.4288: real time      0.4299
    --------------------------------------------
      LOOP:  cpu time   1203.4401: real time   1207.8173

 eigenvalue-minimisations  :     0
 total energy-change (2. order) :-0.2725615E+01  (-0.1168048E+01)
 number of electron     221.0000028 magnetization      27.0000013
 augmentation part       80.8715820 magnetization      19.3751296

 Free energy of the ion-electron system (eV)
  ---------------------------------------------------
  alpha Z        PSCENC =       794.86570411
  Ewald energy   TEWEN  =    -12640.55578209
  -Hartree energ DENC   =    -10896.28873269
  -exchange      EXHF   =       672.89348852
  -V(xc)+E(xc)   XCENC  =       819.73399218
  PAW double counting   =     26558.87042399   -27182.74901173
  entropy T*S    EENTRO =        -0.00898588
  eigenvalues    EBANDS =     -3712.61933965
  atomic energy  EATOM  =     25321.33763079
  ---------------------------------------------------
  free energy    TOTEN  =      -264.52056956 eV

  energy without entropy =     -264.51158369  energy(sigma->0) =     -264.51607663
  exchange ACFDT corr.  =        -1.25493772  see jH, gK, PRB 81, 115126


--------------------------------------------------------------------------------------------------------




--------------------------------------- Iteration      1(  12)  ---------------------------------------


    POTLOK:  cpu time      0.0937: real time      0.0939
    SETDIJ:  cpu time      0.0663: real time      0.0665
    TRIAL :  cpu time    601.9567: real time    603.4552
    CORREC:  cpu time    594.2305: real time    596.3438
    CHARGE:  cpu time      0.4297: real time      0.4308
    --------------------------------------------
      LOOP:  cpu time   1196.7774: real time   1200.3908

 eigenvalue-minimisations  :     0
 total energy-change (2. order) :-0.1166027E+01  (-0.3636240E+00)
 number of electron     221.0000028 magnetization      27.0000013
 augmentation part       80.9367021 magnetization      19.3337722

 Free energy of the ion-electron system (eV)
  ---------------------------------------------------
  alpha Z        PSCENC =       794.86570411
  Ewald energy   TEWEN  =    -12640.55578209
  -Hartree energ DENC   =    -10897.17894253
  -exchange      EXHF   =       673.07194723
  -V(xc)+E(xc)   XCENC  =       820.58820663
  PAW double counting   =     26257.20648706   -26882.26308912
  entropy T*S    EENTRO =        -0.00532781
  eigenvalues    EBANDS =     -3712.74977274
  atomic energy  EATOM  =     25321.33763079
  ---------------------------------------------------
  free energy    TOTEN  =      -265.68659653 eV

  energy without entropy =     -265.68126872  energy(sigma->0) =     -265.68393262
  exchange ACFDT corr.  =        -0.14098649  see jH, gK, PRB 81, 115126


--------------------------------------------------------------------------------------------------------




--------------------------------------- Iteration      1(  13)  ---------------------------------------


    POTLOK:  cpu time      0.0939: real time      0.0942
    SETDIJ:  cpu time      0.0667: real time      0.0669
    TRIAL :  cpu time    597.7937: real time    599.2516
    CORREC:  cpu time    594.6696: real time    596.1536
    CHARGE:  cpu time      0.5488: real time      0.5501
    --------------------------------------------
      LOOP:  cpu time   1193.1734: real time   1196.1170

 eigenvalue-minimisations  :     0
 total energy-change (2. order) :-0.2834996E+00  (-0.3534656E+00)
 number of electron     221.0000028 magnetization      27.0000013
 augmentation part       80.9455940 magnetization      19.3565800

 Free energy of the ion-electron system (eV)
  ---------------------------------------------------
  alpha Z        PSCENC =       794.86570411
  Ewald energy   TEWEN  =    -12640.55578209
  -Hartree energ DENC   =    -10889.71990360
  -exchange      EXHF   =       673.03526964
  -V(xc)+E(xc)   XCENC  =       820.62729153
  PAW double counting   =     26154.42492440   -26779.89943577
  entropy T*S    EENTRO =        -0.00490714
  eigenvalues    EBANDS =     -3720.08046735
  atomic energy  EATOM  =     25321.33763079
  ---------------------------------------------------
  free energy    TOTEN  =      -265.97009614 eV

  energy without entropy =     -265.96518901  energy(sigma->0) =     -265.96764257
  exchange ACFDT corr.  =        -0.08805838  see jH, gK, PRB 81, 115126


--------------------------------------------------------------------------------------------------------




--------------------------------------- Iteration      1(  14)  ---------------------------------------


    POTLOK:  cpu time      0.1267: real time      0.1270
    SETDIJ:  cpu time      0.0992: real time      0.0995
    TRIAL :  cpu time    602.8446: real time    605.4760
    CORREC:  cpu time    600.3147: real time    602.1925
    CHARGE:  cpu time      0.4320: real time      0.4330
    --------------------------------------------
      LOOP:  cpu time   1203.8179: real time   1208.3286

 eigenvalue-minimisations  :     0
 total energy-change (2. order) :-0.3539793E+00  (-0.8490472E-01)
 number of electron     221.0000028 magnetization      27.0000013
 augmentation part       80.9294861 magnetization      19.3877181

 Free energy of the ion-electron system (eV)
  ---------------------------------------------------
  alpha Z        PSCENC =       794.86570411
  Ewald energy   TEWEN  =    -12640.55578209
  -Hartree energ DENC   =    -10875.15100866
  -exchange      EXHF   =       672.20822656
  -V(xc)+E(xc)   XCENC  =       820.14011472
  PAW double counting   =     26090.56432741   -26716.19755264
  entropy T*S    EENTRO =        -0.00758093
  eigenvalues    EBANDS =     -3733.53082851
  atomic energy  EATOM  =     25321.33763079
  ---------------------------------------------------
  free energy    TOTEN  =      -266.32407544 eV

  energy without entropy =     -266.31649451  energy(sigma->0) =     -266.32028498
  exchange ACFDT corr.  =        -0.06441752  see jH, gK, PRB 81, 115126


--------------------------------------------------------------------------------------------------------




--------------------------------------- Iteration      1(  15)  ---------------------------------------


    POTLOK:  cpu time      0.0936: real time      0.0938
    SETDIJ:  cpu time      0.0663: real time      0.0665
    TRIAL :  cpu time    601.1651: real time    602.7683
    CORREC:  cpu time    599.6853: real time    601.2168
    CHARGE:  cpu time      0.4295: real time      0.4306
    --------------------------------------------
      LOOP:  cpu time   1201.4403: real time   1204.5764

 eigenvalue-minimisations  :     0
 total energy-change (2. order) :-0.1170348E+00  (-0.1247083E+00)
 number of electron     221.0000028 magnetization      27.0000013
 augmentation part       80.8703811 magnetization      19.4660066

 Free energy of the ion-electron system (eV)
  ---------------------------------------------------
  alpha Z        PSCENC =       794.86570411
  Ewald energy   TEWEN  =    -12640.55578209
  -Hartree energ DENC   =    -10873.11788830
  -exchange      EXHF   =       671.93826284
  -V(xc)+E(xc)   XCENC  =       820.02286528
  PAW double counting   =     26093.10779134   -26718.49480044
  entropy T*S    EENTRO =        -0.00866345
  eigenvalues    EBANDS =     -3735.53731286
  atomic energy  EATOM  =     25321.33763079
  ---------------------------------------------------
  free energy    TOTEN  =      -266.44111026 eV

  energy without entropy =     -266.43244681  energy(sigma->0) =     -266.43677853
  exchange ACFDT corr.  =        -0.17632656  see jH, gK, PRB 81, 115126


--------------------------------------------------------------------------------------------------------




--------------------------------------- Iteration      1(  16)  ---------------------------------------


    POTLOK:  cpu time      0.0934: real time      0.0936
    SETDIJ:  cpu time      0.0666: real time      0.0668
    TRIAL :  cpu time    604.8095: real time    607.0379
    CORREC:  cpu time    608.8367: real time    611.2377
    CHARGE:  cpu time      0.4405: real time      0.4416
    --------------------------------------------
      LOOP:  cpu time   1214.2474: real time   1218.8783

 eigenvalue-minimisations  :     0
 total energy-change (2. order) :-0.1246950E+00  (-0.6569449E-01)
 number of electron     221.0000028 magnetization      27.0000013
 augmentation part       80.8312640 magnetization      19.5198090

 Free energy of the ion-electron system (eV)
  ---------------------------------------------------
  alpha Z        PSCENC =       794.86570411
  Ewald energy   TEWEN  =    -12640.55578209
  -Hartree energ DENC   =    -10871.46916174
  -exchange      EXHF   =       671.82085540
  -V(xc)+E(xc)   XCENC  =       819.93261123
  PAW double counting   =     26121.83363132   -26746.33671536
  entropy T*S    EENTRO =        -0.00745481
  eigenvalues    EBANDS =     -3737.98591546
  atomic energy  EATOM  =     25321.33763079
  ---------------------------------------------------
  free energy    TOTEN  =      -266.56580525 eV

  energy without entropy =     -266.55835044  energy(sigma->0) =     -266.56207784
  exchange ACFDT corr.  =        -0.08167269  see jH, gK, PRB 81, 115126


--------------------------------------------------------------------------------------------------------




--------------------------------------- Iteration      1(  17)  ---------------------------------------


    POTLOK:  cpu time      0.0949: real time      0.0951
    SETDIJ:  cpu time      0.0701: real time      0.0702
    TRIAL :  cpu time    598.8774: real time    600.3868
    CORREC:  cpu time    598.7321: real time    600.3998
    CHARGE:  cpu time      0.4317: real time      0.4327
    --------------------------------------------
      LOOP:  cpu time   1198.2066: real time   1201.3852

 eigenvalue-minimisations  :     0
 total energy-change (2. order) :-0.5869954E-01  (-0.3667916E-01)
 number of electron     221.0000028 magnetization      27.0000013
 augmentation part       80.8303018 magnetization      19.5616318

 Free energy of the ion-electron system (eV)
  ---------------------------------------------------
  alpha Z        PSCENC =       794.86570411
  Ewald energy   TEWEN  =    -12640.55578209
  -Hartree energ DENC   =    -10870.01674277
  -exchange      EXHF   =       671.88826841
  -V(xc)+E(xc)   XCENC  =       819.91505448
  PAW double counting   =     26142.14562170   -26766.10397309
  entropy T*S    EENTRO =        -0.00626759
  eigenvalues    EBANDS =     -3740.09283153
  atomic energy  EATOM  =     25321.33763079
  ---------------------------------------------------
  free energy    TOTEN  =      -266.62450479 eV

  energy without entropy =     -266.61823719  energy(sigma->0) =     -266.62137099
  exchange ACFDT corr.  =        -0.21134122  see jH, gK, PRB 81, 115126


--------------------------------------------------------------------------------------------------------




--------------------------------------- Iteration      1(  18)  ---------------------------------------


    POTLOK:  cpu time      0.0953: real time      0.0955
    SETDIJ:  cpu time      0.0665: real time      0.0667
    TRIAL :  cpu time    601.1991: real time    603.2964
    CORREC:  cpu time    601.5831: real time    603.2043
    CHARGE:  cpu time      0.4282: real time      0.4293
    --------------------------------------------
      LOOP:  cpu time   1203.3728: real time   1207.0926

 eigenvalue-minimisations  :     0
 total energy-change (2. order) :-0.3505465E-01  (-0.7183013E-01)
 number of electron     221.0000028 magnetization      27.0000013
 augmentation part       80.8630811 magnetization      19.6524125

 Free energy of the ion-electron system (eV)
  ---------------------------------------------------
  alpha Z        PSCENC =       794.86570411
  Ewald energy   TEWEN  =    -12640.55578209
  -Hartree energ DENC   =    -10870.98139035
  -exchange      EXHF   =       672.06758392
  -V(xc)+E(xc)   XCENC  =       820.03039931
  PAW double counting   =     26154.20067186   -26778.14214843
  entropy T*S    EENTRO =        -0.00627969
  eigenvalues    EBANDS =     -3739.47596095
  atomic energy  EATOM  =     25321.33763079
  ---------------------------------------------------
  free energy    TOTEN  =      -266.65955943 eV

  energy without entropy =     -266.65327974  energy(sigma->0) =     -266.65641959
  exchange ACFDT corr.  =        -0.10177600  see jH, gK, PRB 81, 115126


--------------------------------------------------------------------------------------------------------




--------------------------------------- Iteration      1(  19)  ---------------------------------------


    POTLOK:  cpu time      0.0939: real time      0.0941
    SETDIJ:  cpu time      0.0670: real time      0.0672
    TRIAL :  cpu time    603.4698: real time    605.5520
    CORREC:  cpu time    602.6438: real time    604.3452
    CHARGE:  cpu time      0.4275: real time      0.4285
    --------------------------------------------
      LOOP:  cpu time   1206.7026: real time   1210.4875

 eigenvalue-minimisations  :     0
 total energy-change (2. order) :-0.7182872E-01  (-0.2566250E-01)
 number of electron     221.0000028 magnetization      27.0000013
 augmentation part       80.8791063 magnetization      19.6865131

 Free energy of the ion-electron system (eV)
  ---------------------------------------------------
  alpha Z        PSCENC =       794.86570411
  Ewald energy   TEWEN  =    -12640.55578209
  -Hartree energ DENC   =    -10875.48617713
  -exchange      EXHF   =       672.37336221
  -V(xc)+E(xc)   XCENC  =       820.36991349
  PAW double counting   =     26174.57319958   -26798.87493935
  entropy T*S    EENTRO =        -0.00672385
  eigenvalues    EBANDS =     -3735.32802009
[...]
    146      14.0268      0.00000
    147      14.1069      0.00000
    148      14.1820      0.00000
    149      14.3472      0.00000
    150      15.3960      0.00000
    151      15.5548      0.00000
    152      15.6728      0.00000
    153      15.9671      0.00000
    154      16.1900      0.00000
    155      16.3099      0.00000
    156      16.4468      0.00000
    157      16.6964      0.00000
    158      16.9352      0.00000
    159      17.0272      0.00000
    160      17.1593      0.00000
    161      17.3327      0.00000
    162      17.4958      0.00000
    163      17.9440      0.00000
    164      17.9945      0.00000
    165      18.0267      0.00000
    166      18.1586      0.00000
    167      18.2729      0.00000
    168      18.4181      0.00000
    169      18.4940      0.00000
    170      18.5543      0.00000
    171      18.5761      0.00000
    172      18.7516      0.00000
    173      18.9185      0.00000
    174      19.1123      0.00000
    175      19.1755      0.00000
    176      19.3936      0.00000
    177      19.4762      0.00000
    178      19.7177      0.00000
    179      19.7790      0.00000
    180      19.9757      0.00000
    181      20.1352      0.00000
    182      20.2329      0.00000
    183      20.3754      0.00000
    184      20.4389      0.00000
    185      20.6387      0.00000
    186      20.7705      0.00000
    187      20.8850      0.00000
    188      21.1222      0.00000
    189      21.2361      0.00000
    190      21.6892      0.00000
    191      21.9850      0.00000
    192      22.0756      0.00000


--------------------------------------------------------------------------------------------------------


 soft charge-density along one line, spin component           1
         0         1         2         3         4         5         6         7         8         9
 total charge-density along one line
 
 soft charge-density along one line, spin component           2
         0         1         2         3         4         5         6         7         8         9
 total charge-density along one line
 
 pseudopotential strength for first ion, spin component:           1
-21.612   0.007  -0.002   0.307  -0.003   0.001  -0.001  -0.002
  0.007 -21.593   0.009  -0.003   0.300  -0.003  -0.002  -0.006
 -0.002   0.009 -21.642   0.001  -0.003   0.319  -0.002  -0.008
  0.307  -0.003   0.001   7.367   0.000  -0.000   0.000   0.000
 -0.003   0.300  -0.003   0.000   7.368   0.000   0.000  -0.001
  0.001  -0.003   0.319  -0.000   0.000   7.367   0.000  -0.001
 -0.001  -0.002  -0.002   0.000   0.000   0.000   1.395   6.755
 -0.002  -0.006  -0.008   0.000  -0.001  -0.001   6.755  32.433
 pseudopotential strength for first ion, spin component:           2
-21.612   0.007  -0.002   0.307  -0.003   0.001  -0.001  -0.002
  0.007 -21.592   0.009  -0.003   0.300  -0.004  -0.001  -0.004
 -0.002   0.009 -21.641   0.001  -0.004   0.319  -0.002  -0.008
  0.307  -0.003   0.001   7.367   0.000   0.000   0.000  -0.000
 -0.003   0.300  -0.004   0.000   7.368   0.000  -0.000  -0.001
  0.001  -0.004   0.319   0.000   0.000   7.367   0.000  -0.001
 -0.001  -0.001  -0.002   0.000  -0.000   0.000   1.395   6.755
 -0.002  -0.004  -0.008  -0.000  -0.001  -0.001   6.755  32.433
 total augmentation occupancy for first ion, spin component:           1
  2.003  -0.000   0.000  -0.005  -0.001   0.000   0.003  -0.001
 -0.000   2.003  -0.000  -0.001  -0.009  -0.001   0.005  -0.002
  0.000  -0.000   2.004   0.000  -0.001  -0.001   0.009  -0.003
 -0.005  -0.001   0.000   0.015   0.003  -0.000   0.003  -0.000
 -0.001  -0.009  -0.001   0.003   0.026   0.003  -0.000   0.000
  0.000  -0.001  -0.001  -0.000   0.003   0.016   0.004  -0.000
  0.003   0.005   0.009   0.003  -0.000   0.004   0.458  -0.010
 -0.001  -0.002  -0.003  -0.000   0.000  -0.000  -0.010   0.000
 total augmentation occupancy for first ion, spin component:           2
 -0.000  -0.000   0.000   0.000  -0.000  -0.000   0.000  -0.000
 -0.000  -0.000   0.000  -0.000  -0.000  -0.000   0.001  -0.000
  0.000   0.000  -0.000  -0.000  -0.000   0.000   0.000  -0.000
  0.000  -0.000  -0.000  -0.000   0.000   0.000  -0.000   0.000
 -0.000  -0.000  -0.000   0.000   0.001   0.000  -0.003   0.000
 -0.000  -0.000   0.000   0.000   0.000   0.000  -0.001   0.000
  0.000   0.001   0.000  -0.000  -0.003  -0.001   0.019  -0.000
 -0.000  -0.000  -0.000   0.000   0.000   0.000  -0.000   0.000


------------------------ aborting loop because EDIFF is reached ----------------------------------------





 total charge

# of ion       s       p       d       tot
------------------------------------------
    1        0.045   5.993   0.000   6.039
    2        0.035   5.982   0.000   6.017
    3        0.046   5.993   0.000   6.039
    4        0.313   6.366   4.836  11.515
    5        0.375   6.489   4.794  11.658
    6        0.342   6.428   4.798  11.568
    7        0.375   6.487   4.791  11.653
    8        0.378   6.495   4.798  11.671
    9        0.382   6.504   4.809  11.696
   10        0.325   6.389   4.810  11.523
   11        0.311   6.361   4.830  11.502
   12        1.576   3.491   0.000   5.068
   13        1.576   3.459   0.000   5.036
   14        1.575   3.480   0.000   5.055
   15        1.579   3.466   0.000   5.045
   16        1.569   3.487   0.000   5.056
   17        1.574   3.488   0.000   5.062
   18        1.575   3.462   0.000   5.037
   19        1.570   3.499   0.000   5.069
   20        1.568   3.494   0.000   5.062
   21        1.574   3.468   0.000   5.041
   22        1.571   3.502   0.000   5.073
   23        1.567   3.505   0.000   5.072
   24        1.572   3.503   0.000   5.075
   25        1.572   3.497   0.000   5.069
   26        1.576   3.468   0.000   5.044
   27        1.581   3.462   0.000   5.042
--------------------------------------------------
tot         28.103 125.218  38.467 191.788



 magnetization (x)

# of ion       s       p       d       tot
------------------------------------------
    1        0.002   0.000   0.000   0.002
    2        0.003   0.001   0.000   0.004
    3        0.002   0.001   0.000   0.003
    4        0.037   0.034   3.699   3.771
    5        0.032   0.044   3.020   3.097
    6        0.032   0.040   3.328   3.400
    7        0.030   0.041   3.005   3.076
    8        0.028   0.040   2.980   3.048
    9        0.029   0.042   2.974   3.045
   10        0.036   0.037   3.551   3.624
   11        0.037   0.033   3.704   3.774
   12        0.006   0.050   0.000   0.056
   13        0.002  -0.085   0.000  -0.083
   14        0.002  -0.059   0.000  -0.057
   15        0.002  -0.053   0.000  -0.051
   16        0.002  -0.036   0.000  -0.034
   17        0.002  -0.060   0.000  -0.057
   18        0.002  -0.081   0.000  -0.079
   19        0.007   0.040   0.000   0.047
   20        0.007   0.045   0.000   0.052
   21        0.004  -0.028   0.000  -0.024
   22        0.001  -0.050   0.000  -0.049
   23        0.002  -0.031   0.000  -0.029
   24        0.001  -0.043   0.000  -0.043
   25        0.001  -0.052   0.000  -0.051
   26        0.005  -0.040   0.000  -0.036
   27        0.007   0.042   0.000   0.049
--------------------------------------------------
tot          0.320  -0.128  26.261  26.453
 
    FORLOC:  cpu time      0.0021: real time      0.0021
    FORHF :  cpu time   1168.2040: real time   1171.9628
    FORNL :  cpu time      2.3208: real time      2.3263
    STRESS:  cpu time      7.2505: real time      7.2676
    FORCOR:  cpu time      0.0841: real time      0.0843
    OFIELD:  cpu time      0.0002: real time      0.0002

  FORCE on cell =-STRESS in cart. coord.  units (eV):
  Direction    XX          YY          ZZ          XY          YZ          ZX
  --------------------------------------------------------------------------------------
  Alpha Z   831.00436   831.00436   831.00436
  Ewald     331.95580   450.23179-13255.13532  -208.59125     6.23337    76.04156
  Hartree  7374.17131  7357.36884 -3587.09304  -103.91124     4.27034    49.87798
  E(xc)    -919.41019  -919.10046  -921.48529    -0.16048     0.00177     0.03161
  Local  -10993.32719-11075.67156 13484.94331   300.95278   -10.62979  -120.83032
  n-local   240.59784   242.33817   235.54146    -0.09728    -0.06266    -0.60870
  augment   932.09796   922.50228   942.17754     4.38041     0.28035    -2.58181
  Kinetic  3333.69112  3316.67976  3406.28114    10.45539    -0.07202    -3.50260
  Fock    -1131.50553 -1125.79710 -1136.42456    -2.72322     0.00119     1.48729
  -------------------------------------------------------------------------------------
  Total      -0.72452    -0.44391    -0.19040     0.30511     0.02255    -0.08498
  in kB      -3.51077    -2.15102    -0.92263     1.47846     0.10928    -0.41180
  external pressure =       -2.19 kB  Pullay stress =        0.00 kB


 VOLUME and BASIS-vectors are now :
 -----------------------------------------------------------------------------
  energy-cutoff  :      520.00
  volume of cell :      330.64
      direct lattice vectors                 reciprocal lattice vectors
    -3.032117312 -4.994641318 -0.019784993    -0.167381860 -0.098605152  0.000950208
    -2.893635824  4.911811432 -0.012875171    -0.170203698  0.103322996  0.000822535
    -0.059279504 -0.007952460-11.267503516     0.000488400  0.000055079 -0.088753413

  length of vectors
     5.842993131  5.700805697 11.267662259     0.194269313  0.199112071  0.088754774


 FORCES acting on ions:
    Electron-Ion                     Ewald-Force                    Non-Local-Force
 -----------------------------------------------------------------------------------------------
   0.169E+02 0.649E+00 0.462E-01   -.163E+02 -.466E+00 0.400E+00   -.589E+00 -.208E+00 -.284E+00
   0.227E+01 0.611E+01 -.284E+02   -.196E+01 -.612E+01 0.263E+02   -.301E+00 -.106E-02 0.181E+01
   -.162E+02 -.605E+01 0.384E+02   0.155E+02 0.545E+01 -.350E+02   0.724E+00 0.545E+00 -.306E+01
   -.224E+02 0.299E+02 0.151E+03   0.228E+02 -.302E+02 -.152E+03   -.389E+00 0.365E+00 0.578E+00
   0.390E+01 -.487E+02 0.224E+03   -.381E+01 0.487E+02 -.224E+03   -.131E+00 -.111E+00 0.452E+00
   -.600E+01 -.111E+02 0.307E+03   0.597E+01 0.112E+02 -.307E+03   0.610E-01 -.255E+00 0.436E-01
   0.229E+02 0.245E+02 0.111E+03   -.231E+02 -.248E+02 -.112E+03   0.254E+00 0.492E+00 0.141E+01
   -.209E+02 0.245E+02 -.108E+03   0.211E+02 -.251E+02 0.109E+03   -.271E+00 0.715E+00 -.136E+01
   -.716E+01 -.476E+02 -.213E+03   0.703E+01 0.479E+02 0.213E+03   0.165E+00 -.414E+00 -.552E+00
   0.525E+01 -.150E+02 -.323E+03   -.527E+01 0.151E+02 0.323E+03   0.237E-02 -.146E+00 0.902E-02
   0.338E+02 0.376E+02 -.156E+03   -.338E+02 -.379E+02 0.156E+03   -.128E+00 0.281E+00 -.529E+00
   -.508E+02 0.142E+02 0.554E+03   0.552E+02 -.116E+02 -.575E+03   -.380E+01 -.222E+01 0.188E+02
   0.409E+02 -.322E+02 0.561E+03   -.424E+02 0.334E+02 -.583E+03   0.135E+01 -.108E+01 0.190E+02
   -.560E+02 -.403E+01 0.559E+03   0.591E+02 0.511E+01 -.582E+03   -.272E+01 -.955E+00 0.198E+02
   0.217E+02 -.240E+02 0.579E+03   -.220E+02 0.261E+02 -.604E+03   0.170E+00 -.183E+01 0.221E+02
   -.191E+02 0.632E+02 -.379E+03   0.193E+02 -.662E+02 0.398E+03   -.975E-01 0.258E+01 -.165E+02
   0.290E+02 -.438E+02 -.387E+03   -.320E+02 0.427E+02 0.408E+03   0.261E+01 0.989E+00 -.184E+02
   -.124E+02 -.271E+02 -.411E+03   0.137E+02 0.265E+02 0.432E+03   -.114E+01 0.496E+00 -.184E+02
   0.493E+02 0.576E+02 -.372E+03   -.535E+02 -.611E+02 0.389E+03   0.373E+01 0.314E+01 -.155E+02
   0.450E+02 0.782E+02 0.383E+03   -.488E+02 -.824E+02 -.399E+03   0.333E+01 0.379E+01 0.141E+02
   0.459E+02 -.189E+02 0.414E+03   -.500E+02 0.176E+02 -.434E+03   0.365E+01 0.118E+01 0.170E+02
   -.241E+02 -.515E+02 0.382E+03   0.246E+02 0.512E+02 -.403E+03   -.471E+00 0.394E+00 0.178E+02
   -.333E+02 0.386E+02 0.359E+03   0.338E+02 -.406E+02 -.377E+03   -.379E+00 0.158E+01 0.155E+02
   0.287E+02 0.342E+02 -.531E+03   -.285E+02 -.332E+02 0.552E+03   -.237E+00 -.731E+00 -.186E+02
   0.503E+02 -.309E+01 -.550E+03   -.506E+02 0.423E+01 0.572E+03   0.268E+00 -.108E+01 -.189E+02
   -.706E+02 -.428E+02 -.563E+03   0.746E+02 0.450E+02 0.584E+03   -.364E+01 -.191E+01 -.179E+02
   -.548E+02 -.362E+02 -.599E+03   0.592E+02 0.395E+02 0.623E+03   -.384E+01 -.295E+01 -.209E+02
 -----------------------------------------------------------------------------------------------
   0.179E+01 -.277E+01 0.266E+01   0.121E-12 0.114E-12 -.455E-12   -.181E+01 0.266E+01 -.257E+01
 
 
 POSITION                                       TOTAL-FORCE (eV/Angst)
 -----------------------------------------------------------------------------------
     -2.90834      1.68532     -2.80870         0.006886     -0.036945      0.104331
     -1.51626      0.70650     -8.48511        -0.010606     -0.007553     -0.115624
     -2.97415     -3.31402     -2.80752         0.038946     -0.007472      0.085384
     -5.92131     -0.09703     -5.61416         0.015382      0.070201     -0.008311
     -4.46948     -2.53367     -5.64311        -0.006137     -0.014192      0.010197
     -4.41255      2.41768     -5.69676         0.014814     -0.084034      0.150948
     -2.96354     -0.04829     -5.57979        -0.022217      0.069309     -0.003320
     -0.03172     -0.02054     -0.07726        -0.010373      0.037803     -0.021834
     -1.48678      2.45482     -0.03434         0.000445     -0.019305     -0.049952
     -1.61203     -2.51838    -11.21909        -0.002402     -0.035760     -0.056384
     -2.99362     -0.06033     -0.05976        -0.032071      0.012263      0.033925
     -1.65801     -0.88316     -6.60018         0.028390      0.013642     -0.076821
     -2.84915      1.57810     -6.59370         0.018906      0.013250      0.037061
     -3.05567     -3.37301     -6.57167         0.004038      0.006856      0.072983
     -4.38123     -0.86538     -6.52876        -0.117666     -0.008306      0.075702
     -1.51082      0.83466     -4.59410         0.089379     -0.029247     -0.189172
     -2.90039      3.23686     -4.68466        -0.009254      0.036575     -0.091357
     -3.03689     -1.72202     -4.63267        -0.001083      0.001972     -0.077851
     -4.28704      0.89946     -4.58281         0.018393      0.001775     -0.070140
     -1.35525      0.90349     -1.14937        -0.000911      0.027738      0.077406
     -2.84666      3.27449     -1.08884         0.054285      0.028660      0.026208
     -3.02583     -1.74272     -0.96101        -0.057318      0.100988      0.046049
     -4.50136      0.80044     -1.02736         0.117110     -0.130067      0.077417
     -1.52202     -0.82053    -10.38564        -0.119059      0.116921     -0.003376
     -2.97535      1.58425    -10.37831         0.055489     -0.085316     -0.027191
     -3.24154     -3.44709    -10.30756        -0.083149     -0.040446     -0.022430
     -4.72829     -0.96564    -10.34754         0.009782     -0.039311      0.016149
 -----------------------------------------------------------------------------------
    total drift:                                0.032526      0.092276     -0.137341


--------------------------------------------------------------------------------------------------------



  FREE ENERGIE OF THE ION-ELECTRON SYSTEM (eV)
  ---------------------------------------------------
  free  energy   TOTEN  =      -267.62527546 eV

  energy  without entropy=     -267.62101403  energy(sigma->0) =     -267.62314475
 
 d Force = 0.4309581E-03[-0.122E-02, 0.209E-02]  d Energy = 0.2043431E-02-0.161E-02
 d Force =-0.1887856E+01[-0.192E+01,-0.185E+01]  d Ewald  = 0.1461489E+02-0.165E+02


--------------------------------------------------------------------------------------------------------


    POTLOK:  cpu time      0.1632: real time      0.1658


--------------------------------------------------------------------------------------------------------




--------------------------------------------------------------------------------------------------------


  
 reached required accuracy - stopping structural energy minimisation
     LOOP+:  cpu time   9101.0288: real time   9129.1205
    4ORBIT:  cpu time      0.0000: real time      0.0000



 total charge

# of ion       s       p       d       tot
------------------------------------------
    1        0.045   5.993   0.000   6.039
    2        0.035   5.982   0.000   6.017
    3        0.046   5.993   0.000   6.039
    4        0.313   6.366   4.836  11.515
    5        0.375   6.489   4.794  11.658
    6        0.342   6.428   4.798  11.568
    7        0.375   6.487   4.791  11.653
    8        0.378   6.495   4.798  11.671
    9        0.382   6.504   4.809  11.696
   10        0.325   6.389   4.810  11.523
   11        0.311   6.361   4.830  11.502
   12        1.576   3.491   0.000   5.068
   13        1.576   3.459   0.000   5.036
   14        1.575   3.480   0.000   5.055
   15        1.579   3.466   0.000   5.045
   16        1.569   3.487   0.000   5.056
   17        1.574   3.488   0.000   5.062
   18        1.575   3.462   0.000   5.037
   19        1.570   3.499   0.000   5.069
   20        1.568   3.494   0.000   5.062
   21        1.574   3.468   0.000   5.041
   22        1.571   3.502   0.000   5.073
   23        1.567   3.505   0.000   5.072
   24        1.572   3.503   0.000   5.075
   25        1.572   3.497   0.000   5.069
   26        1.576   3.468   0.000   5.044
   27        1.581   3.462   0.000   5.042
--------------------------------------------------
tot         28.103 125.218  38.467 191.788



 magnetization (x)

# of ion       s       p       d       tot
------------------------------------------
    1        0.002   0.000   0.000   0.002
    2        0.003   0.001   0.000   0.004
    3        0.002   0.001   0.000   0.003
    4        0.037   0.034   3.699   3.771
    5        0.032   0.044   3.020   3.097
    6        0.032   0.040   3.328   3.400
    7        0.030   0.041   3.005   3.076
    8        0.028   0.040   2.980   3.048
    9        0.029   0.042   2.974   3.045
   10        0.036   0.037   3.551   3.624
   11        0.037   0.033   3.704   3.774
   12        0.006   0.050   0.000   0.056
   13        0.002  -0.085   0.000  -0.083
   14        0.002  -0.059   0.000  -0.057
   15        0.002  -0.053   0.000  -0.051
   16        0.002  -0.036   0.000  -0.034
   17        0.002  -0.060   0.000  -0.057
   18        0.002  -0.081   0.000  -0.079
   19        0.007   0.040   0.000   0.047
   20        0.007   0.045   0.000   0.052
   21        0.004  -0.028   0.000  -0.024
   22        0.001  -0.050   0.000  -0.049
   23        0.002  -0.031   0.000  -0.029
   24        0.001  -0.043   0.000  -0.043
   25        0.001  -0.052   0.000  -0.051
   26        0.005  -0.040   0.000  -0.036
   27        0.007   0.042   0.000   0.049
--------------------------------------------------
tot          0.320  -0.128  26.261  26.453
 

 total amount of memory used by VASP MPI-rank0   228784. kBytes
=======================================================================

   base      :      30000. kBytes
   nonlr-proj:      45422. kBytes
   fftplans  :       1830. kBytes
   grid      :      18422. kBytes
   one-center:        839. kBytes
   HF        :        194. kBytes
   wavefun   :      55662. kBytes
   fock_wrk  :      76415. kBytes
 
  
  
 General timing and accounting informations for this job:
 ========================================================
  
                  Total CPU time used (sec):   127837.008
                            User time (sec):   127217.171
                          System time (sec):      619.839
                         Elapsed time (sec):   128252.453
  
                   Maximum memory used (kb):      728332.
                   Average memory used (kb):          N/A
  
                          Minor page faults:     85590485
                          Major page faults:            2
                 Voluntary context switches:        66569
